<?xml version="1.0" encoding="UTF-8"?>

<!-- generated on Tue Apr 14 14:38:39 2020 by Eclipse SUMO GUI Version v1_1_0+0000-2147d155b1
<configuration xmlns:xsi="http://www.w3.org/2001/XMLSchema-instance" xsi:noNamespaceSchemaLocation="http://sumo.dlr.de/xsd/sumoConfiguration.xsd">

    <input>
        <net-file value="baptest2.net.xml"/>
        <route-files value="baptest2.rou.xml"/>
        <additional-files value="baptest2.det.xml"/>
    </input>

    <output>
        <tripinfo-output value="tripinfo.xml"/>
    </output>

    <time>
        <begin value="0"/>
    </time>

    <report>
        <verbose value="true"/>
        <no-step-log value="true"/>
    </report>

    <traci_server>
        <remote-port value="58164"/>
    </traci_server>

    <gui_only>
        <quit-on-end value="true"/>
        <start value="true"/>
    </gui_only>

</configuration>
-->

<detector xmlns:xsi="http://www.w3.org/2001/XMLSchema-instance" xsi:noNamespaceSchemaLocation="http://sumo.dlr.de/xsd/det_e1_file.xsd">
    <interval begin="0.00" end="30.00" id="0" nVehContrib="0" flow="0.00" occupancy="0.00" speed="-1.00" length="-1.00" nVehEntered="0"/>
    <interval begin="0.00" end="30.00" id="1" nVehContrib="0" flow="0.00" occupancy="0.00" speed="-1.00" length="-1.00" nVehEntered="0"/>
    <interval begin="0.00" end="30.00" id="2" nVehContrib="0" flow="0.00" occupancy="0.00" speed="-1.00" length="-1.00" nVehEntered="0"/>
    <interval begin="0.00" end="30.00" id="3" nVehContrib="0" flow="0.00" occupancy="0.00" speed="-1.00" length="-1.00" nVehEntered="0"/>
    <interval begin="0.00" end="30.00" id="0c" nVehContrib="0" flow="0.00" occupancy="0.00" speed="-1.00" length="-1.00" nVehEntered="0"/>
    <interval begin="0.00" end="30.00" id="1c" nVehContrib="0" flow="0.00" occupancy="0.00" speed="-1.00" length="-1.00" nVehEntered="0"/>
    <interval begin="0.00" end="30.00" id="2c" nVehContrib="0" flow="0.00" occupancy="0.00" speed="-1.00" length="-1.00" nVehEntered="0"/>
    <interval begin="0.00" end="30.00" id="3c" nVehContrib="0" flow="0.00" occupancy="0.00" speed="-1.00" length="-1.00" nVehEntered="0"/>
    <interval begin="30.00" end="60.00" id="0" nVehContrib="0" flow="0.00" occupancy="0.00" speed="-1.00" length="-1.00" nVehEntered="0"/>
    <interval begin="30.00" end="60.00" id="1" nVehContrib="3" flow="360.00" occupancy="3.26" speed="15.50" length="5.00" nVehEntered="3"/>
    <interval begin="30.00" end="60.00" id="2" nVehContrib="0" flow="0.00" occupancy="0.00" speed="-1.00" length="-1.00" nVehEntered="0"/>
    <interval begin="30.00" end="60.00" id="3" nVehContrib="3" flow="360.00" occupancy="3.11" speed="16.08" length="5.00" nVehEntered="3"/>
    <interval begin="30.00" end="60.00" id="0c" nVehContrib="0" flow="0.00" occupancy="0.00" speed="-1.00" length="-1.00" nVehEntered="0"/>
    <interval begin="30.00" end="60.00" id="1c" nVehContrib="0" flow="0.00" occupancy="0.00" speed="-1.00" length="-1.00" nVehEntered="0"/>
    <interval begin="30.00" end="60.00" id="2c" nVehContrib="0" flow="0.00" occupancy="0.00" speed="-1.00" length="-1.00" nVehEntered="0"/>
    <interval begin="30.00" end="60.00" id="3c" nVehContrib="0" flow="0.00" occupancy="0.00" speed="-1.00" length="-1.00" nVehEntered="0"/>
    <interval begin="60.00" end="90.00" id="0" nVehContrib="0" flow="0.00" occupancy="0.00" speed="-1.00" length="-1.00" nVehEntered="0"/>
    <interval begin="60.00" end="90.00" id="1" nVehContrib="5" flow="600.00" occupancy="16.80" speed="6.74" length="5.00" nVehEntered="5"/>
    <interval begin="60.00" end="90.00" id="2" nVehContrib="0" flow="0.00" occupancy="0.00" speed="-1.00" length="-1.00" nVehEntered="0"/>
    <interval begin="60.00" end="90.00" id="3" nVehContrib="1" flow="120.00" occupancy="1.01" speed="16.54" length="5.00" nVehEntered="1"/>
    <interval begin="60.00" end="90.00" id="0c" nVehContrib="0" flow="0.00" occupancy="0.00" speed="-1.00" length="-1.00" nVehEntered="0"/>
    <interval begin="60.00" end="90.00" id="1c" nVehContrib="4" flow="480.00" occupancy="22.30" speed="3.94" length="5.00" nVehEntered="5"/>
    <interval begin="60.00" end="90.00" id="2c" nVehContrib="0" flow="0.00" occupancy="0.00" speed="-1.00" length="-1.00" nVehEntered="0"/>
    <interval begin="60.00" end="90.00" id="3c" nVehContrib="4" flow="480.00" occupancy="18.64" speed="5.45" length="5.00" nVehEntered="4"/>
    <interval begin="90.00" end="120.00" id="0" nVehContrib="0" flow="0.00" occupancy="0.00" speed="-1.00" length="-1.00" nVehEntered="0"/>
    <interval begin="90.00" end="120.00" id="1" nVehContrib="1" flow="120.00" occupancy="1.01" speed="16.50" length="5.00" nVehEntered="1"/>
    <interval begin="90.00" end="120.00" id="2" nVehContrib="0" flow="0.00" occupancy="0.00" speed="-1.00" length="-1.00" nVehEntered="0"/>
    <interval begin="90.00" end="120.00" id="3" nVehContrib="3" flow="360.00" occupancy="3.02" speed="16.53" length="5.00" nVehEntered="3"/>
    <interval begin="90.00" end="120.00" id="0c" nVehContrib="0" flow="0.00" occupancy="0.00" speed="-1.00" length="-1.00" nVehEntered="0"/>
    <interval begin="90.00" end="120.00" id="1c" nVehContrib="5" flow="600.00" occupancy="8.89" speed="7.43" length="5.00" nVehEntered="4"/>
    <interval begin="90.00" end="120.00" id="2c" nVehContrib="0" flow="0.00" occupancy="0.00" speed="-1.00" length="-1.00" nVehEntered="0"/>
    <interval begin="90.00" end="120.00" id="3c" nVehContrib="2" flow="240.00" occupancy="2.32" speed="14.39" length="5.00" nVehEntered="2"/>
    <interval begin="120.00" end="150.00" id="0" nVehContrib="2" flow="240.00" occupancy="2.36" speed="20.00" length="7.00" nVehEntered="2"/>
    <interval begin="120.00" end="150.00" id="1" nVehContrib="2" flow="240.00" occupancy="2.05" speed="16.29" length="5.00" nVehEntered="2"/>
    <interval begin="120.00" end="150.00" id="2" nVehContrib="0" flow="0.00" occupancy="0.00" speed="-1.00" length="-1.00" nVehEntered="0"/>
    <interval begin="120.00" end="150.00" id="3" nVehContrib="2" flow="240.00" occupancy="2.17" speed="15.41" length="5.00" nVehEntered="2"/>
    <interval begin="120.00" end="150.00" id="0c" nVehContrib="2" flow="240.00" occupancy="3.48" speed="13.42" length="7.00" nVehEntered="2"/>
    <interval begin="120.00" end="150.00" id="1c" nVehContrib="0" flow="0.00" occupancy="1.87" speed="-1.00" length="-1.00" nVehEntered="1"/>
    <interval begin="120.00" end="150.00" id="2c" nVehContrib="0" flow="0.00" occupancy="0.00" speed="-1.00" length="-1.00" nVehEntered="0"/>
    <interval begin="120.00" end="150.00" id="3c" nVehContrib="0" flow="0.00" occupancy="2.33" speed="-1.00" length="-1.00" nVehEntered="1"/>
    <interval begin="150.00" end="180.00" id="0" nVehContrib="1" flow="120.00" occupancy="1.46" speed="15.96" length="7.00" nVehEntered="1"/>
    <interval begin="150.00" end="180.00" id="1" nVehContrib="2" flow="240.00" occupancy="2.02" speed="16.49" length="5.00" nVehEntered="2"/>
    <interval begin="150.00" end="180.00" id="2" nVehContrib="0" flow="0.00" occupancy="0.00" speed="-1.00" length="-1.00" nVehEntered="0"/>
    <interval begin="150.00" end="180.00" id="3" nVehContrib="3" flow="360.00" occupancy="4.11" speed="12.70" length="5.00" nVehEntered="3"/>
    <interval begin="150.00" end="180.00" id="0c" nVehContrib="0" flow="0.00" occupancy="0.00" speed="-1.00" length="-1.00" nVehEntered="0"/>
    <interval begin="150.00" end="180.00" id="1c" nVehContrib="3" flow="360.00" occupancy="13.85" speed="6.03" length="5.00" nVehEntered="2"/>
    <interval begin="150.00" end="180.00" id="2c" nVehContrib="0" flow="0.00" occupancy="0.00" speed="-1.00" length="-1.00" nVehEntered="0"/>
    <interval begin="150.00" end="180.00" id="3c" nVehContrib="6" flow="720.00" occupancy="21.97" speed="5.63" length="5.00" nVehEntered="5"/>
    <interval begin="180.00" end="210.00" id="0" nVehContrib="0" flow="0.00" occupancy="0.00" speed="-1.00" length="-1.00" nVehEntered="0"/>
    <interval begin="180.00" end="210.00" id="1" nVehContrib="4" flow="480.00" occupancy="20.31" speed="12.96" length="5.00" nVehEntered="5"/>
    <interval begin="180.00" end="210.00" id="2" nVehContrib="0" flow="0.00" occupancy="0.00" speed="-1.00" length="-1.00" nVehEntered="0"/>
    <interval begin="180.00" end="210.00" id="3" nVehContrib="2" flow="240.00" occupancy="2.04" speed="16.36" length="5.00" nVehEntered="2"/>
    <interval begin="180.00" end="210.00" id="0c" nVehContrib="1" flow="120.00" occupancy="11.68" speed="2.00" length="7.00" nVehEntered="1"/>
    <interval begin="180.00" end="210.00" id="1c" nVehContrib="0" flow="0.00" occupancy="0.00" speed="-1.00" length="-1.00" nVehEntered="0"/>
    <interval begin="180.00" end="210.00" id="2c" nVehContrib="0" flow="0.00" occupancy="0.00" speed="-1.00" length="-1.00" nVehEntered="0"/>
    <interval begin="180.00" end="210.00" id="3c" nVehContrib="0" flow="0.00" occupancy="0.00" speed="-1.00" length="-1.00" nVehEntered="0"/>
    <interval begin="210.00" end="240.00" id="0" nVehContrib="1" flow="120.00" occupancy="1.34" speed="17.36" length="7.00" nVehEntered="1"/>
    <interval begin="210.00" end="240.00" id="1" nVehContrib="3" flow="360.00" occupancy="76.53" speed="2.19" length="5.00" nVehEntered="3"/>
    <interval begin="210.00" end="240.00" id="2" nVehContrib="0" flow="0.00" occupancy="0.00" speed="-1.00" length="-1.00" nVehEntered="0"/>
    <interval begin="210.00" end="240.00" id="3" nVehContrib="4" flow="480.00" occupancy="6.85" speed="10.46" length="5.00" nVehEntered="4"/>
    <interval begin="210.00" end="240.00" id="0c" nVehContrib="1" flow="120.00" occupancy="1.73" speed="13.45" length="7.00" nVehEntered="1"/>
    <interval begin="210.00" end="240.00" id="1c" nVehContrib="6" flow="720.00" occupancy="25.50" speed="4.78" length="5.00" nVehEntered="6"/>
    <interval begin="210.00" end="240.00" id="2c" nVehContrib="0" flow="0.00" occupancy="0.00" speed="-1.00" length="-1.00" nVehEntered="0"/>
    <interval begin="210.00" end="240.00" id="3c" nVehContrib="6" flow="720.00" occupancy="26.44" speed="4.62" length="5.00" nVehEntered="6"/>
    <interval begin="240.00" end="270.00" id="0" nVehContrib="0" flow="0.00" occupancy="0.00" speed="-1.00" length="-1.00" nVehEntered="0"/>
    <interval begin="240.00" end="270.00" id="1" nVehContrib="6" flow="720.00" occupancy="10.64" speed="10.07" length="5.00" nVehEntered="5"/>
    <interval begin="240.00" end="270.00" id="2" nVehContrib="0" flow="0.00" occupancy="0.00" speed="-1.00" length="-1.00" nVehEntered="0"/>
    <interval begin="240.00" end="270.00" id="3" nVehContrib="2" flow="240.00" occupancy="2.02" speed="16.48" length="5.00" nVehEntered="2"/>
    <interval begin="240.00" end="270.00" id="0c" nVehContrib="0" flow="0.00" occupancy="0.00" speed="-1.00" length="-1.00" nVehEntered="0"/>
    <interval begin="240.00" end="270.00" id="1c" nVehContrib="6" flow="720.00" occupancy="11.07" speed="9.11" length="5.00" nVehEntered="6"/>
    <interval begin="240.00" end="270.00" id="2c" nVehContrib="0" flow="0.00" occupancy="0.00" speed="-1.00" length="-1.00" nVehEntered="0"/>
    <interval begin="240.00" end="270.00" id="3c" nVehContrib="1" flow="120.00" occupancy="1.25" speed="13.31" length="5.00" nVehEntered="1"/>
    <interval begin="270.00" end="300.00" id="0" nVehContrib="0" flow="0.00" occupancy="0.00" speed="-1.00" length="-1.00" nVehEntered="0"/>
    <interval begin="270.00" end="300.00" id="1" nVehContrib="2" flow="240.00" occupancy="2.46" speed="13.70" length="5.00" nVehEntered="2"/>
    <interval begin="270.00" end="300.00" id="2" nVehContrib="0" flow="0.00" occupancy="0.00" speed="-1.00" length="-1.00" nVehEntered="0"/>
    <interval begin="270.00" end="300.00" id="3" nVehContrib="2" flow="240.00" occupancy="2.19" speed="15.27" length="5.00" nVehEntered="2"/>
    <interval begin="270.00" end="300.00" id="0c" nVehContrib="0" flow="0.00" occupancy="0.00" speed="-1.00" length="-1.00" nVehEntered="0"/>
    <interval begin="270.00" end="300.00" id="1c" nVehContrib="1" flow="120.00" occupancy="8.70" speed="1.91" length="5.00" nVehEntered="1"/>
    <interval begin="270.00" end="300.00" id="2c" nVehContrib="0" flow="0.00" occupancy="0.00" speed="-1.00" length="-1.00" nVehEntered="0"/>
    <interval begin="270.00" end="300.00" id="3c" nVehContrib="0" flow="0.00" occupancy="8.51" speed="-1.00" length="-1.00" nVehEntered="1"/>
    <interval begin="300.00" end="330.00" id="0" nVehContrib="0" flow="0.00" occupancy="0.00" speed="-1.00" length="-1.00" nVehEntered="0"/>
    <interval begin="300.00" end="330.00" id="1" nVehContrib="2" flow="240.00" occupancy="2.01" speed="16.56" length="5.00" nVehEntered="2"/>
    <interval begin="300.00" end="330.00" id="2" nVehContrib="0" flow="0.00" occupancy="0.00" speed="-1.00" length="-1.00" nVehEntered="0"/>
    <interval begin="300.00" end="330.00" id="3" nVehContrib="1" flow="120.00" occupancy="1.01" speed="16.52" length="5.00" nVehEntered="1"/>
    <interval begin="300.00" end="330.00" id="0c" nVehContrib="0" flow="0.00" occupancy="0.00" speed="-1.00" length="-1.00" nVehEntered="0"/>
    <interval begin="300.00" end="330.00" id="1c" nVehContrib="5" flow="600.00" occupancy="13.39" speed="8.50" length="5.00" nVehEntered="5"/>
    <interval begin="300.00" end="330.00" id="2c" nVehContrib="0" flow="0.00" occupancy="0.00" speed="-1.00" length="-1.00" nVehEntered="0"/>
    <interval begin="300.00" end="330.00" id="3c" nVehContrib="3" flow="360.00" occupancy="9.09" speed="3.27" length="5.00" nVehEntered="2"/>
    <interval begin="330.00" end="360.00" id="0" nVehContrib="1" flow="120.00" occupancy="1.08" speed="21.65" length="7.00" nVehEntered="1"/>
    <interval begin="330.00" end="360.00" id="1" nVehContrib="0" flow="0.00" occupancy="0.00" speed="-1.00" length="-1.00" nVehEntered="0"/>
    <interval begin="330.00" end="360.00" id="2" nVehContrib="0" flow="0.00" occupancy="0.00" speed="-1.00" length="-1.00" nVehEntered="0"/>
    <interval begin="330.00" end="360.00" id="3" nVehContrib="4" flow="480.00" occupancy="5.72" speed="12.34" length="5.00" nVehEntered="4"/>
    <interval begin="330.00" end="360.00" id="0c" nVehContrib="1" flow="120.00" occupancy="1.73" speed="13.50" length="7.00" nVehEntered="1"/>
    <interval begin="330.00" end="360.00" id="1c" nVehContrib="0" flow="0.00" occupancy="0.00" speed="-1.00" length="-1.00" nVehEntered="0"/>
    <interval begin="330.00" end="360.00" id="2c" nVehContrib="0" flow="0.00" occupancy="0.00" speed="-1.00" length="-1.00" nVehEntered="0"/>
    <interval begin="330.00" end="360.00" id="3c" nVehContrib="0" flow="0.00" occupancy="0.00" speed="-1.00" length="-1.00" nVehEntered="0"/>
    <interval begin="360.00" end="390.00" id="0" nVehContrib="3" flow="360.00" occupancy="4.53" speed="15.62" length="7.00" nVehEntered="3"/>
    <interval begin="360.00" end="390.00" id="1" nVehContrib="2" flow="240.00" occupancy="2.03" speed="16.41" length="5.00" nVehEntered="2"/>
    <interval begin="360.00" end="390.00" id="2" nVehContrib="0" flow="0.00" occupancy="0.00" speed="-1.00" length="-1.00" nVehEntered="0"/>
    <interval begin="360.00" end="390.00" id="3" nVehContrib="2" flow="240.00" occupancy="42.48" speed="3.62" length="5.00" nVehEntered="2"/>
    <interval begin="360.00" end="390.00" id="0c" nVehContrib="0" flow="0.00" occupancy="0.00" speed="-1.00" length="-1.00" nVehEntered="0"/>
    <interval begin="360.00" end="390.00" id="1c" nVehContrib="2" flow="240.00" occupancy="2.57" speed="12.97" length="5.00" nVehEntered="2"/>
    <interval begin="360.00" end="390.00" id="2c" nVehContrib="0" flow="0.00" occupancy="0.00" speed="-1.00" length="-1.00" nVehEntered="0"/>
    <interval begin="360.00" end="390.00" id="3c" nVehContrib="6" flow="720.00" occupancy="25.97" speed="4.73" length="5.00" nVehEntered="6"/>
    <interval begin="390.00" end="420.00" id="0" nVehContrib="1" flow="120.00" occupancy="1.31" speed="17.76" length="7.00" nVehEntered="1"/>
    <interval begin="390.00" end="420.00" id="1" nVehContrib="1" flow="120.00" occupancy="1.01" speed="16.57" length="5.00" nVehEntered="1"/>
    <interval begin="390.00" end="420.00" id="2" nVehContrib="0" flow="0.00" occupancy="0.00" speed="-1.00" length="-1.00" nVehEntered="0"/>
    <interval begin="390.00" end="420.00" id="3" nVehContrib="2" flow="240.00" occupancy="2.03" speed="16.46" length="5.00" nVehEntered="2"/>
    <interval begin="390.00" end="420.00" id="0c" nVehContrib="3" flow="360.00" occupancy="21.72" speed="3.77" length="7.00" nVehEntered="3"/>
    <interval begin="390.00" end="420.00" id="1c" nVehContrib="1" flow="120.00" occupancy="1.09" speed="15.23" length="5.00" nVehEntered="1"/>
    <interval begin="390.00" end="420.00" id="2c" nVehContrib="0" flow="0.00" occupancy="0.00" speed="-1.00" length="-1.00" nVehEntered="0"/>
    <interval begin="390.00" end="420.00" id="3c" nVehContrib="2" flow="240.00" occupancy="3.31" speed="11.39" length="5.00" nVehEntered="2"/>
    <interval begin="420.00" end="450.00" id="0" nVehContrib="2" flow="240.00" occupancy="2.32" speed="20.13" length="7.00" nVehEntered="2"/>
    <interval begin="420.00" end="450.00" id="1" nVehContrib="3" flow="360.00" occupancy="3.34" speed="15.05" length="5.00" nVehEntered="3"/>
    <interval begin="420.00" end="450.00" id="2" nVehContrib="0" flow="0.00" occupancy="0.00" speed="-1.00" length="-1.00" nVehEntered="0"/>
    <interval begin="420.00" end="450.00" id="3" nVehContrib="3" flow="360.00" occupancy="3.74" speed="13.56" length="5.00" nVehEntered="3"/>
    <interval begin="420.00" end="450.00" id="0c" nVehContrib="3" flow="360.00" occupancy="5.92" speed="11.99" length="7.00" nVehEntered="3"/>
    <interval begin="420.00" end="450.00" id="1c" nVehContrib="1" flow="120.00" occupancy="9.40" speed="1.77" length="5.00" nVehEntered="1"/>
    <interval begin="420.00" end="450.00" id="2c" nVehContrib="0" flow="0.00" occupancy="0.00" speed="-1.00" length="-1.00" nVehEntered="0"/>
    <interval begin="420.00" end="450.00" id="3c" nVehContrib="1" flow="120.00" occupancy="8.54" speed="1.95" length="5.00" nVehEntered="1"/>
    <interval begin="450.00" end="480.00" id="0" nVehContrib="0" flow="0.00" occupancy="0.00" speed="-1.00" length="-1.00" nVehEntered="0"/>
    <interval begin="450.00" end="480.00" id="1" nVehContrib="3" flow="360.00" occupancy="3.06" speed="16.36" length="5.00" nVehEntered="3"/>
    <interval begin="450.00" end="480.00" id="2" nVehContrib="0" flow="0.00" occupancy="0.00" speed="-1.00" length="-1.00" nVehEntered="0"/>
    <interval begin="450.00" end="480.00" id="3" nVehContrib="2" flow="240.00" occupancy="2.24" speed="15.04" length="5.00" nVehEntered="2"/>
    <interval begin="450.00" end="480.00" id="0c" nVehContrib="0" flow="0.00" occupancy="0.00" speed="-1.00" length="-1.00" nVehEntered="0"/>
    <interval begin="450.00" end="480.00" id="1c" nVehContrib="5" flow="600.00" occupancy="12.03" speed="9.82" length="5.00" nVehEntered="5"/>
    <interval begin="450.00" end="480.00" id="2c" nVehContrib="0" flow="0.00" occupancy="0.00" speed="-1.00" length="-1.00" nVehEntered="0"/>
    <interval begin="450.00" end="480.00" id="3c" nVehContrib="5" flow="600.00" occupancy="14.18" speed="7.26" length="5.00" nVehEntered="5"/>
    <interval begin="480.00" end="510.00" id="0" nVehContrib="3" flow="360.00" occupancy="3.59" speed="19.49" length="7.00" nVehEntered="3"/>
    <interval begin="480.00" end="510.00" id="1" nVehContrib="0" flow="0.00" occupancy="0.00" speed="-1.00" length="-1.00" nVehEntered="0"/>
    <interval begin="480.00" end="510.00" id="2" nVehContrib="0" flow="0.00" occupancy="0.00" speed="-1.00" length="-1.00" nVehEntered="0"/>
    <interval begin="480.00" end="510.00" id="3" nVehContrib="2" flow="240.00" occupancy="2.11" speed="15.80" length="5.00" nVehEntered="2"/>
    <interval begin="480.00" end="510.00" id="0c" nVehContrib="2" flow="240.00" occupancy="3.08" speed="15.16" length="7.00" nVehEntered="2"/>
    <interval begin="480.00" end="510.00" id="1c" nVehContrib="0" flow="0.00" occupancy="0.00" speed="-1.00" length="-1.00" nVehEntered="0"/>
    <interval begin="480.00" end="510.00" id="2c" nVehContrib="0" flow="0.00" occupancy="0.00" speed="-1.00" length="-1.00" nVehEntered="0"/>
    <interval begin="480.00" end="510.00" id="3c" nVehContrib="0" flow="0.00" occupancy="0.00" speed="-1.00" length="-1.00" nVehEntered="0"/>
    <interval begin="510.00" end="540.00" id="0" nVehContrib="0" flow="0.00" occupancy="0.00" speed="-1.00" length="-1.00" nVehEntered="0"/>
    <interval begin="510.00" end="540.00" id="1" nVehContrib="6" flow="720.00" occupancy="6.29" speed="15.94" length="5.00" nVehEntered="6"/>
    <interval begin="510.00" end="540.00" id="2" nVehContrib="0" flow="0.00" occupancy="0.00" speed="-1.00" length="-1.00" nVehEntered="0"/>
    <interval begin="510.00" end="540.00" id="3" nVehContrib="6" flow="720.00" occupancy="9.52" speed="10.95" length="5.00" nVehEntered="6"/>
    <interval begin="510.00" end="540.00" id="0c" nVehContrib="1" flow="120.00" occupancy="1.52" speed="15.35" length="7.00" nVehEntered="1"/>
    <interval begin="510.00" end="540.00" id="1c" nVehContrib="5" flow="600.00" occupancy="20.19" speed="7.17" length="5.00" nVehEntered="5"/>
    <interval begin="510.00" end="540.00" id="2c" nVehContrib="0" flow="0.00" occupancy="0.00" speed="-1.00" length="-1.00" nVehEntered="0"/>
    <interval begin="510.00" end="540.00" id="3c" nVehContrib="7" flow="840.00" occupancy="27.35" speed="5.07" length="5.00" nVehEntered="7"/>
    <interval begin="540.00" end="570.00" id="0" nVehContrib="1" flow="120.00" occupancy="1.13" speed="20.58" length="7.00" nVehEntered="1"/>
    <interval begin="540.00" end="570.00" id="1" nVehContrib="1" flow="120.00" occupancy="1.01" speed="16.44" length="5.00" nVehEntered="1"/>
    <interval begin="540.00" end="570.00" id="2" nVehContrib="0" flow="0.00" occupancy="0.00" speed="-1.00" length="-1.00" nVehEntered="0"/>
    <interval begin="540.00" end="570.00" id="3" nVehContrib="2" flow="240.00" occupancy="2.02" speed="16.52" length="5.00" nVehEntered="2"/>
    <interval begin="540.00" end="570.00" id="0c" nVehContrib="1" flow="120.00" occupancy="1.43" speed="16.31" length="7.00" nVehEntered="1"/>
    <interval begin="540.00" end="570.00" id="1c" nVehContrib="1" flow="120.00" occupancy="1.14" speed="14.67" length="5.00" nVehEntered="1"/>
    <interval begin="540.00" end="570.00" id="2c" nVehContrib="0" flow="0.00" occupancy="0.00" speed="-1.00" length="-1.00" nVehEntered="0"/>
    <interval begin="540.00" end="570.00" id="3c" nVehContrib="2" flow="240.00" occupancy="3.06" speed="11.58" length="5.00" nVehEntered="2"/>
    <interval begin="570.00" end="600.00" id="0" nVehContrib="0" flow="0.00" occupancy="0.00" speed="-1.00" length="-1.00" nVehEntered="0"/>
    <interval begin="570.00" end="600.00" id="1" nVehContrib="4" flow="480.00" occupancy="5.61" speed="12.73" length="5.00" nVehEntered="4"/>
    <interval begin="570.00" end="600.00" id="2" nVehContrib="0" flow="0.00" occupancy="0.00" speed="-1.00" length="-1.00" nVehEntered="0"/>
    <interval begin="570.00" end="600.00" id="3" nVehContrib="1" flow="120.00" occupancy="1.09" speed="15.36" length="5.00" nVehEntered="1"/>
    <interval begin="570.00" end="600.00" id="0c" nVehContrib="0" flow="0.00" occupancy="0.00" speed="-1.00" length="-1.00" nVehEntered="0"/>
    <interval begin="570.00" end="600.00" id="1c" nVehContrib="2" flow="240.00" occupancy="13.73" speed="2.76" length="5.00" nVehEntered="2"/>
    <interval begin="570.00" end="600.00" id="2c" nVehContrib="0" flow="0.00" occupancy="0.00" speed="-1.00" length="-1.00" nVehEntered="0"/>
    <interval begin="570.00" end="600.00" id="3c" nVehContrib="2" flow="240.00" occupancy="12.96" speed="2.82" length="5.00" nVehEntered="2"/>
    <interval begin="600.00" end="630.00" id="0" nVehContrib="1" flow="120.00" occupancy="1.21" speed="19.30" length="7.00" nVehEntered="1"/>
    <interval begin="600.00" end="630.00" id="1" nVehContrib="3" flow="360.00" occupancy="3.99" speed="13.79" length="5.00" nVehEntered="3"/>
    <interval begin="600.00" end="630.00" id="2" nVehContrib="0" flow="0.00" occupancy="0.00" speed="-1.00" length="-1.00" nVehEntered="0"/>
    <interval begin="600.00" end="630.00" id="3" nVehContrib="1" flow="120.00" occupancy="1.01" speed="16.48" length="5.00" nVehEntered="1"/>
    <interval begin="600.00" end="630.00" id="0c" nVehContrib="0" flow="0.00" occupancy="0.00" speed="-1.00" length="-1.00" nVehEntered="0"/>
    <interval begin="600.00" end="630.00" id="1c" nVehContrib="5" flow="600.00" occupancy="12.81" speed="7.46" length="5.00" nVehEntered="5"/>
    <interval begin="600.00" end="630.00" id="2c" nVehContrib="0" flow="0.00" occupancy="0.00" speed="-1.00" length="-1.00" nVehEntered="0"/>
    <interval begin="600.00" end="630.00" id="3c" nVehContrib="1" flow="120.00" occupancy="1.08" speed="15.39" length="5.00" nVehEntered="1"/>
    <interval begin="630.00" end="660.00" id="0" nVehContrib="0" flow="0.00" occupancy="0.00" speed="-1.00" length="-1.00" nVehEntered="0"/>
    <interval begin="630.00" end="660.00" id="1" nVehContrib="3" flow="360.00" occupancy="3.76" speed="13.67" length="5.00" nVehEntered="3"/>
    <interval begin="630.00" end="660.00" id="2" nVehContrib="0" flow="0.00" occupancy="0.00" speed="-1.00" length="-1.00" nVehEntered="0"/>
    <interval begin="630.00" end="660.00" id="3" nVehContrib="1" flow="120.00" occupancy="1.02" speed="16.34" length="5.00" nVehEntered="1"/>
    <interval begin="630.00" end="660.00" id="0c" nVehContrib="1" flow="120.00" occupancy="11.60" speed="2.01" length="7.00" nVehEntered="1"/>
    <interval begin="630.00" end="660.00" id="1c" nVehContrib="0" flow="0.00" occupancy="0.00" speed="-1.00" length="-1.00" nVehEntered="0"/>
    <interval begin="630.00" end="660.00" id="2c" nVehContrib="0" flow="0.00" occupancy="0.00" speed="-1.00" length="-1.00" nVehEntered="0"/>
    <interval begin="630.00" end="660.00" id="3c" nVehContrib="0" flow="0.00" occupancy="0.00" speed="-1.00" length="-1.00" nVehEntered="0"/>
    <interval begin="660.00" end="690.00" id="0" nVehContrib="1" flow="120.00" occupancy="1.36" speed="17.20" length="7.00" nVehEntered="1"/>
    <interval begin="660.00" end="690.00" id="1" nVehContrib="2" flow="240.00" occupancy="2.66" speed="15.39" length="5.00" nVehEntered="3"/>
    <interval begin="660.00" end="690.00" id="2" nVehContrib="0" flow="0.00" occupancy="0.00" speed="-1.00" length="-1.00" nVehEntered="0"/>
    <interval begin="660.00" end="690.00" id="3" nVehContrib="2" flow="240.00" occupancy="2.02" speed="16.52" length="5.00" nVehEntered="2"/>
    <interval begin="660.00" end="690.00" id="0c" nVehContrib="0" flow="0.00" occupancy="0.00" speed="-1.00" length="-1.00" nVehEntered="0"/>
    <interval begin="660.00" end="690.00" id="1c" nVehContrib="6" flow="720.00" occupancy="23.26" speed="5.61" length="5.00" nVehEntered="6"/>
    <interval begin="660.00" end="690.00" id="2c" nVehContrib="0" flow="0.00" occupancy="0.00" speed="-1.00" length="-1.00" nVehEntered="0"/>
    <interval begin="660.00" end="690.00" id="3c" nVehContrib="3" flow="360.00" occupancy="10.65" speed="10.96" length="5.00" nVehEntered="3"/>
    <interval begin="690.00" end="720.00" id="0" nVehContrib="1" flow="120.00" occupancy="1.48" speed="15.72" length="7.00" nVehEntered="1"/>
    <interval begin="690.00" end="720.00" id="1" nVehContrib="6" flow="720.00" occupancy="6.79" speed="14.28" length="5.00" nVehEntered="5"/>
    <interval begin="690.00" end="720.00" id="2" nVehContrib="0" flow="0.00" occupancy="0.00" speed="-1.00" length="-1.00" nVehEntered="0"/>
    <interval begin="690.00" end="720.00" id="3" nVehContrib="2" flow="240.00" occupancy="2.05" speed="16.27" length="5.00" nVehEntered="2"/>
    <interval begin="690.00" end="720.00" id="0c" nVehContrib="2" flow="240.00" occupancy="16.82" speed="3.00" length="7.00" nVehEntered="2"/>
    <interval begin="690.00" end="720.00" id="1c" nVehContrib="1" flow="120.00" occupancy="1.02" speed="16.38" length="5.00" nVehEntered="1"/>
    <interval begin="690.00" end="720.00" id="2c" nVehContrib="0" flow="0.00" occupancy="0.00" speed="-1.00" length="-1.00" nVehEntered="0"/>
    <interval begin="690.00" end="720.00" id="3c" nVehContrib="0" flow="0.00" occupancy="0.00" speed="-1.00" length="-1.00" nVehEntered="0"/>
    <interval begin="720.00" end="750.00" id="0" nVehContrib="1" flow="120.00" occupancy="1.28" speed="18.28" length="7.00" nVehEntered="1"/>
    <interval begin="720.00" end="750.00" id="1" nVehContrib="1" flow="120.00" occupancy="69.68" speed="0.24" length="5.00" nVehEntered="1"/>
    <interval begin="720.00" end="750.00" id="2" nVehContrib="0" flow="0.00" occupancy="0.00" speed="-1.00" length="-1.00" nVehEntered="0"/>
    <interval begin="720.00" end="750.00" id="3" nVehContrib="2" flow="240.00" occupancy="2.30" speed="14.52" length="5.00" nVehEntered="2"/>
    <interval begin="720.00" end="750.00" id="0c" nVehContrib="0" flow="0.00" occupancy="0.00" speed="-1.00" length="-1.00" nVehEntered="0"/>
    <interval begin="720.00" end="750.00" id="1c" nVehContrib="2" flow="240.00" occupancy="16.34" speed="2.79" length="5.00" nVehEntered="3"/>
    <interval begin="720.00" end="750.00" id="2c" nVehContrib="0" flow="0.00" occupancy="0.00" speed="-1.00" length="-1.00" nVehEntered="0"/>
    <interval begin="720.00" end="750.00" id="3c" nVehContrib="2" flow="240.00" occupancy="15.05" speed="2.84" length="5.00" nVehEntered="3"/>
    <interval begin="750.00" end="780.00" id="0" nVehContrib="3" flow="360.00" occupancy="6.46" speed="11.77" length="7.00" nVehEntered="3"/>
    <interval begin="750.00" end="780.00" id="1" nVehContrib="3" flow="360.00" occupancy="7.74" speed="11.04" length="5.00" nVehEntered="3"/>
    <interval begin="750.00" end="780.00" id="2" nVehContrib="0" flow="0.00" occupancy="0.00" speed="-1.00" length="-1.00" nVehEntered="0"/>
    <interval begin="750.00" end="780.00" id="3" nVehContrib="3" flow="360.00" occupancy="3.88" speed="16.45" length="5.00" nVehEntered="4"/>