<?xml version="1.0" encoding="UTF-8"?>

<!-- generated on Thu Apr 16 19:41:32 2020 by Eclipse SUMO GUI Version v1_1_0+0000-2147d155b1
<configuration xmlns:xsi="http://www.w3.org/2001/XMLSchema-instance" xsi:noNamespaceSchemaLocation="http://sumo.dlr.de/xsd/sumoConfiguration.xsd">

    <input>
        <net-file value="baptest2.net.xml"/>
        <route-files value="baptest2.rou.xml"/>
        <additional-files value="baptest2.det.xml"/>
    </input>

    <output>
        <tripinfo-output value="tripinfo.xml"/>
    </output>

    <time>
        <begin value="0"/>
    </time>

    <report>
        <verbose value="true"/>
        <no-step-log value="true"/>
    </report>

    <traci_server>
        <remote-port value="58446"/>
    </traci_server>

    <gui_only>
        <quit-on-end value="true"/>
        <start value="true"/>
    </gui_only>

</configuration>
-->

<detector xmlns:xsi="http://www.w3.org/2001/XMLSchema-instance" xsi:noNamespaceSchemaLocation="http://sumo.dlr.de/xsd/det_e1_file.xsd">
    <interval begin="0.00" end="30.00" id="0" nVehContrib="0" flow="0.00" occupancy="0.00" speed="-1.00" length="-1.00" nVehEntered="0"/>
    <interval begin="0.00" end="30.00" id="1" nVehContrib="0" flow="0.00" occupancy="0.00" speed="-1.00" length="-1.00" nVehEntered="0"/>
    <interval begin="0.00" end="30.00" id="2" nVehContrib="0" flow="0.00" occupancy="0.00" speed="-1.00" length="-1.00" nVehEntered="0"/>
    <interval begin="0.00" end="30.00" id="3" nVehContrib="0" flow="0.00" occupancy="0.00" speed="-1.00" length="-1.00" nVehEntered="0"/>
    <interval begin="0.00" end="30.00" id="0c" nVehContrib="0" flow="0.00" occupancy="0.00" speed="-1.00" length="-1.00" nVehEntered="0"/>
    <interval begin="0.00" end="30.00" id="1c" nVehContrib="0" flow="0.00" occupancy="0.00" speed="-1.00" length="-1.00" nVehEntered="0"/>
    <interval begin="0.00" end="30.00" id="2c" nVehContrib="0" flow="0.00" occupancy="0.00" speed="-1.00" length="-1.00" nVehEntered="0"/>
    <interval begin="0.00" end="30.00" id="3c" nVehContrib="0" flow="0.00" occupancy="0.00" speed="-1.00" length="-1.00" nVehEntered="0"/>
    <interval begin="30.00" end="60.00" id="0" nVehContrib="0" flow="0.00" occupancy="0.00" speed="-1.00" length="-1.00" nVehEntered="0"/>
    <interval begin="30.00" end="60.00" id="1" nVehContrib="3" flow="360.00" occupancy="3.02" speed="16.53" length="5.00" nVehEntered="3"/>
    <interval begin="30.00" end="60.00" id="2" nVehContrib="0" flow="0.00" occupancy="0.00" speed="-1.00" length="-1.00" nVehEntered="0"/>
    <interval begin="30.00" end="60.00" id="3" nVehContrib="3" flow="360.00" occupancy="3.07" speed="16.30" length="5.00" nVehEntered="3"/>
    <interval begin="30.00" end="60.00" id="0c" nVehContrib="0" flow="0.00" occupancy="0.00" speed="-1.00" length="-1.00" nVehEntered="0"/>
    <interval begin="30.00" end="60.00" id="1c" nVehContrib="3" flow="360.00" occupancy="3.34" speed="15.00" length="5.00" nVehEntered="3"/>
    <interval begin="30.00" end="60.00" id="2c" nVehContrib="0" flow="0.00" occupancy="0.00" speed="-1.00" length="-1.00" nVehEntered="0"/>
    <interval begin="30.00" end="60.00" id="3c" nVehContrib="3" flow="360.00" occupancy="3.74" speed="13.42" length="5.00" nVehEntered="3"/>
    <interval begin="60.00" end="90.00" id="0" nVehContrib="0" flow="0.00" occupancy="0.00" speed="-1.00" length="-1.00" nVehEntered="0"/>
    <interval begin="60.00" end="90.00" id="1" nVehContrib="5" flow="600.00" occupancy="5.03" speed="16.57" length="5.00" nVehEntered="5"/>
    <interval begin="60.00" end="90.00" id="2" nVehContrib="0" flow="0.00" occupancy="0.00" speed="-1.00" length="-1.00" nVehEntered="0"/>
    <interval begin="60.00" end="90.00" id="3" nVehContrib="1" flow="120.00" occupancy="1.00" speed="16.67" length="5.00" nVehEntered="1"/>
    <interval begin="60.00" end="90.00" id="0c" nVehContrib="0" flow="0.00" occupancy="0.00" speed="-1.00" length="-1.00" nVehEntered="0"/>
    <interval begin="60.00" end="90.00" id="1c" nVehContrib="4" flow="480.00" occupancy="5.01" speed="13.44" length="5.00" nVehEntered="4"/>
    <interval begin="60.00" end="90.00" id="2c" nVehContrib="0" flow="0.00" occupancy="0.00" speed="-1.00" length="-1.00" nVehEntered="0"/>
    <interval begin="60.00" end="90.00" id="3c" nVehContrib="1" flow="120.00" occupancy="1.01" speed="16.44" length="5.00" nVehEntered="1"/>
    <interval begin="90.00" end="120.00" id="0" nVehContrib="0" flow="0.00" occupancy="0.00" speed="-1.00" length="-1.00" nVehEntered="0"/>
    <interval begin="90.00" end="120.00" id="1" nVehContrib="1" flow="120.00" occupancy="1.00" speed="16.59" length="5.00" nVehEntered="1"/>
    <interval begin="90.00" end="120.00" id="2" nVehContrib="0" flow="0.00" occupancy="0.00" speed="-1.00" length="-1.00" nVehEntered="0"/>
    <interval begin="90.00" end="120.00" id="3" nVehContrib="3" flow="360.00" occupancy="3.04" speed="16.45" length="5.00" nVehEntered="3"/>
    <interval begin="90.00" end="120.00" id="0c" nVehContrib="0" flow="0.00" occupancy="0.00" speed="-1.00" length="-1.00" nVehEntered="0"/>
    <interval begin="90.00" end="120.00" id="1c" nVehContrib="2" flow="240.00" occupancy="2.21" speed="15.10" length="5.00" nVehEntered="2"/>
    <interval begin="90.00" end="120.00" id="2c" nVehContrib="0" flow="0.00" occupancy="0.00" speed="-1.00" length="-1.00" nVehEntered="0"/>
    <interval begin="90.00" end="120.00" id="3c" nVehContrib="3" flow="360.00" occupancy="3.32" speed="15.13" length="5.00" nVehEntered="3"/>
    <interval begin="120.00" end="150.00" id="0" nVehContrib="2" flow="240.00" occupancy="2.90" speed="16.30" length="7.00" nVehEntered="2"/>
    <interval begin="120.00" end="150.00" id="1" nVehContrib="2" flow="240.00" occupancy="2.04" speed="16.35" length="5.00" nVehEntered="2"/>
    <interval begin="120.00" end="150.00" id="2" nVehContrib="0" flow="0.00" occupancy="0.00" speed="-1.00" length="-1.00" nVehEntered="0"/>
    <interval begin="120.00" end="150.00" id="3" nVehContrib="2" flow="240.00" occupancy="2.03" speed="16.43" length="5.00" nVehEntered="2"/>
    <interval begin="120.00" end="150.00" id="0c" nVehContrib="2" flow="240.00" occupancy="17.03" speed="3.06" length="7.00" nVehEntered="2"/>
    <interval begin="120.00" end="150.00" id="1c" nVehContrib="1" flow="120.00" occupancy="1.17" speed="14.24" length="5.00" nVehEntered="1"/>
    <interval begin="120.00" end="150.00" id="2c" nVehContrib="0" flow="0.00" occupancy="0.00" speed="-1.00" length="-1.00" nVehEntered="0"/>
    <interval begin="120.00" end="150.00" id="3c" nVehContrib="1" flow="120.00" occupancy="1.24" speed="13.40" length="5.00" nVehEntered="1"/>
    <interval begin="150.00" end="180.00" id="0" nVehContrib="1" flow="120.00" occupancy="1.48" speed="15.81" length="7.00" nVehEntered="1"/>
    <interval begin="150.00" end="180.00" id="1" nVehContrib="2" flow="240.00" occupancy="2.11" speed="15.86" length="5.00" nVehEntered="2"/>
    <interval begin="150.00" end="180.00" id="2" nVehContrib="0" flow="0.00" occupancy="0.00" speed="-1.00" length="-1.00" nVehEntered="0"/>
    <interval begin="150.00" end="180.00" id="3" nVehContrib="3" flow="360.00" occupancy="3.10" speed="16.15" length="5.00" nVehEntered="3"/>
    <interval begin="150.00" end="180.00" id="0c" nVehContrib="1" flow="120.00" occupancy="11.13" speed="2.10" length="7.00" nVehEntered="1"/>
    <interval begin="150.00" end="180.00" id="1c" nVehContrib="1" flow="120.00" occupancy="9.01" speed="1.85" length="5.00" nVehEntered="1"/>
    <interval begin="150.00" end="180.00" id="2c" nVehContrib="0" flow="0.00" occupancy="0.00" speed="-1.00" length="-1.00" nVehEntered="0"/>
    <interval begin="150.00" end="180.00" id="3c" nVehContrib="3" flow="360.00" occupancy="17.02" speed="3.49" length="5.00" nVehEntered="3"/>
    <interval begin="180.00" end="210.00" id="0" nVehContrib="0" flow="0.00" occupancy="0.00" speed="-1.00" length="-1.00" nVehEntered="0"/>
    <interval begin="180.00" end="210.00" id="1" nVehContrib="5" flow="600.00" occupancy="5.16" speed="16.18" length="5.00" nVehEntered="5"/>
    <interval begin="180.00" end="210.00" id="2" nVehContrib="0" flow="0.00" occupancy="0.00" speed="-1.00" length="-1.00" nVehEntered="0"/>
    <interval begin="180.00" end="210.00" id="3" nVehContrib="2" flow="240.00" occupancy="2.00" speed="16.63" length="5.00" nVehEntered="2"/>
    <interval begin="180.00" end="210.00" id="0c" nVehContrib="0" flow="0.00" occupancy="0.00" speed="-1.00" length="-1.00" nVehEntered="0"/>
    <interval begin="180.00" end="210.00" id="1c" nVehContrib="7" flow="840.00" occupancy="23.65" speed="8.43" length="5.00" nVehEntered="7"/>
    <interval begin="180.00" end="210.00" id="2c" nVehContrib="0" flow="0.00" occupancy="0.00" speed="-1.00" length="-1.00" nVehEntered="0"/>
    <interval begin="180.00" end="210.00" id="3c" nVehContrib="2" flow="240.00" occupancy="9.67" speed="7.77" length="5.00" nVehEntered="2"/>
    <interval begin="210.00" end="240.00" id="0" nVehContrib="1" flow="120.00" occupancy="1.35" speed="17.29" length="7.00" nVehEntered="1"/>
    <interval begin="210.00" end="240.00" id="1" nVehContrib="4" flow="480.00" occupancy="4.17" speed="16.00" length="5.00" nVehEntered="4"/>
    <interval begin="210.00" end="240.00" id="2" nVehContrib="0" flow="0.00" occupancy="0.00" speed="-1.00" length="-1.00" nVehEntered="0"/>
    <interval begin="210.00" end="240.00" id="3" nVehContrib="4" flow="480.00" occupancy="4.29" speed="15.59" length="5.00" nVehEntered="4"/>
    <interval begin="210.00" end="240.00" id="0c" nVehContrib="1" flow="120.00" occupancy="10.55" speed="2.21" length="7.00" nVehEntered="1"/>
    <interval begin="210.00" end="240.00" id="1c" nVehContrib="3" flow="360.00" occupancy="15.68" speed="6.80" length="5.00" nVehEntered="4"/>
    <interval begin="210.00" end="240.00" id="2c" nVehContrib="0" flow="0.00" occupancy="0.00" speed="-1.00" length="-1.00" nVehEntered="0"/>
    <interval begin="210.00" end="240.00" id="3c" nVehContrib="5" flow="600.00" occupancy="18.31" speed="8.19" length="5.00" nVehEntered="5"/>
    <interval begin="240.00" end="270.00" id="0" nVehContrib="0" flow="0.00" occupancy="0.00" speed="-1.00" length="-1.00" nVehEntered="0"/>
    <interval begin="240.00" end="270.00" id="1" nVehContrib="4" flow="480.00" occupancy="4.08" speed="16.34" length="5.00" nVehEntered="4"/>
    <interval begin="240.00" end="270.00" id="2" nVehContrib="0" flow="0.00" occupancy="0.00" speed="-1.00" length="-1.00" nVehEntered="0"/>
    <interval begin="240.00" end="270.00" id="3" nVehContrib="2" flow="240.00" occupancy="2.02" speed="16.50" length="5.00" nVehEntered="2"/>
    <interval begin="240.00" end="270.00" id="0c" nVehContrib="0" flow="0.00" occupancy="0.00" speed="-1.00" length="-1.00" nVehEntered="0"/>
    <interval begin="240.00" end="270.00" id="1c" nVehContrib="5" flow="600.00" occupancy="5.72" speed="12.56" length="5.00" nVehEntered="4"/>
    <interval begin="240.00" end="270.00" id="2c" nVehContrib="0" flow="0.00" occupancy="0.00" speed="-1.00" length="-1.00" nVehEntered="0"/>
    <interval begin="240.00" end="270.00" id="3c" nVehContrib="2" flow="240.00" occupancy="2.42" speed="13.83" length="5.00" nVehEntered="2"/>
    <interval begin="270.00" end="300.00" id="0" nVehContrib="0" flow="0.00" occupancy="0.00" speed="-1.00" length="-1.00" nVehEntered="0"/>
    <interval begin="270.00" end="300.00" id="1" nVehContrib="2" flow="240.00" occupancy="2.03" speed="16.41" length="5.00" nVehEntered="2"/>
    <interval begin="270.00" end="300.00" id="2" nVehContrib="0" flow="0.00" occupancy="0.00" speed="-1.00" length="-1.00" nVehEntered="0"/>
    <interval begin="270.00" end="300.00" id="3" nVehContrib="2" flow="240.00" occupancy="2.04" speed="16.34" length="5.00" nVehEntered="2"/>
    <interval begin="270.00" end="300.00" id="0c" nVehContrib="0" flow="0.00" occupancy="0.00" speed="-1.00" length="-1.00" nVehEntered="0"/>
    <interval begin="270.00" end="300.00" id="1c" nVehContrib="2" flow="240.00" occupancy="2.17" speed="15.39" length="5.00" nVehEntered="2"/>
    <interval begin="270.00" end="300.00" id="2c" nVehContrib="0" flow="0.00" occupancy="0.00" speed="-1.00" length="-1.00" nVehEntered="0"/>
    <interval begin="270.00" end="300.00" id="3c" nVehContrib="2" flow="240.00" occupancy="2.39" speed="14.04" length="5.00" nVehEntered="2"/>
    <interval begin="300.00" end="330.00" id="0" nVehContrib="0" flow="0.00" occupancy="0.00" speed="-1.00" length="-1.00" nVehEntered="0"/>
    <interval begin="300.00" end="330.00" id="1" nVehContrib="2" flow="240.00" occupancy="2.03" speed="16.42" length="5.00" nVehEntered="2"/>
    <interval begin="300.00" end="330.00" id="2" nVehContrib="0" flow="0.00" occupancy="0.00" speed="-1.00" length="-1.00" nVehEntered="0"/>
    <interval begin="300.00" end="330.00" id="3" nVehContrib="1" flow="120.00" occupancy="1.01" speed="16.58" length="5.00" nVehEntered="1"/>
    <interval begin="300.00" end="330.00" id="0c" nVehContrib="0" flow="0.00" occupancy="0.00" speed="-1.00" length="-1.00" nVehEntered="0"/>
    <interval begin="300.00" end="330.00" id="1c" nVehContrib="2" flow="240.00" occupancy="2.21" speed="15.10" length="5.00" nVehEntered="2"/>
    <interval begin="300.00" end="330.00" id="2c" nVehContrib="0" flow="0.00" occupancy="0.00" speed="-1.00" length="-1.00" nVehEntered="0"/>
    <interval begin="300.00" end="330.00" id="3c" nVehContrib="1" flow="120.00" occupancy="1.26" speed="13.28" length="5.00" nVehEntered="1"/>
    <interval begin="330.00" end="360.00" id="0" nVehContrib="1" flow="120.00" occupancy="1.27" speed="18.33" length="7.00" nVehEntered="1"/>
    <interval begin="330.00" end="360.00" id="1" nVehContrib="0" flow="0.00" occupancy="0.00" speed="-1.00" length="-1.00" nVehEntered="0"/>
    <interval begin="330.00" end="360.00" id="2" nVehContrib="0" flow="0.00" occupancy="0.00" speed="-1.00" length="-1.00" nVehEntered="0"/>
    <interval begin="330.00" end="360.00" id="3" nVehContrib="4" flow="480.00" occupancy="4.02" speed="16.57" length="5.00" nVehEntered="4"/>
    <interval begin="330.00" end="360.00" id="0c" nVehContrib="0" flow="0.00" occupancy="0.00" speed="-1.00" length="-1.00" nVehEntered="0"/>
    <interval begin="330.00" end="360.00" id="1c" nVehContrib="0" flow="0.00" occupancy="0.00" speed="-1.00" length="-1.00" nVehEntered="0"/>
    <interval begin="330.00" end="360.00" id="2c" nVehContrib="0" flow="0.00" occupancy="0.00" speed="-1.00" length="-1.00" nVehEntered="0"/>
    <interval begin="330.00" end="360.00" id="3c" nVehContrib="4" flow="480.00" occupancy="4.58" speed="14.70" length="5.00" nVehEntered="4"/>
    <interval begin="360.00" end="390.00" id="0" nVehContrib="3" flow="360.00" occupancy="4.67" speed="15.23" length="7.00" nVehEntered="3"/>
    <interval begin="360.00" end="390.00" id="1" nVehContrib="2" flow="240.00" occupancy="2.00" speed="16.63" length="5.00" nVehEntered="2"/>
    <interval begin="360.00" end="390.00" id="2" nVehContrib="0" flow="0.00" occupancy="0.00" speed="-1.00" length="-1.00" nVehEntered="0"/>
    <interval begin="360.00" end="390.00" id="3" nVehContrib="2" flow="240.00" occupancy="2.05" speed="16.30" length="5.00" nVehEntered="2"/>
    <interval begin="360.00" end="390.00" id="0c" nVehContrib="3" flow="360.00" occupancy="29.98" speed="2.56" length="7.00" nVehEntered="3"/>
    <interval begin="360.00" end="390.00" id="1c" nVehContrib="0" flow="0.00" occupancy="0.00" speed="-1.00" length="-1.00" nVehEntered="0"/>
    <interval begin="360.00" end="390.00" id="2c" nVehContrib="0" flow="0.00" occupancy="0.00" speed="-1.00" length="-1.00" nVehEntered="0"/>
    <interval begin="360.00" end="390.00" id="3c" nVehContrib="0" flow="0.00" occupancy="0.00" speed="-1.00" length="-1.00" nVehEntered="0"/>
    <interval begin="390.00" end="420.00" id="0" nVehContrib="1" flow="120.00" occupancy="1.31" speed="17.78" length="7.00" nVehEntered="1"/>
    <interval begin="390.00" end="420.00" id="1" nVehContrib="1" flow="120.00" occupancy="1.14" speed="14.67" length="5.00" nVehEntered="1"/>
    <interval begin="390.00" end="420.00" id="2" nVehContrib="0" flow="0.00" occupancy="0.00" speed="-1.00" length="-1.00" nVehEntered="0"/>
    <interval begin="390.00" end="420.00" id="3" nVehContrib="2" flow="240.00" occupancy="2.07" speed="16.09" length="5.00" nVehEntered="2"/>
    <interval begin="390.00" end="420.00" id="0c" nVehContrib="1" flow="120.00" occupancy="4.93" speed="4.73" length="7.00" nVehEntered="1"/>
    <interval begin="390.00" end="420.00" id="1c" nVehContrib="3" flow="360.00" occupancy="17.70" speed="3.24" length="5.00" nVehEntered="3"/>
    <interval begin="390.00" end="420.00" id="2c" nVehContrib="0" flow="0.00" occupancy="0.00" speed="-1.00" length="-1.00" nVehEntered="0"/>
    <interval begin="390.00" end="420.00" id="3c" nVehContrib="3" flow="360.00" occupancy="19.91" speed="3.09" length="5.00" nVehEntered="3"/>
    <interval begin="420.00" end="450.00" id="0" nVehContrib="2" flow="240.00" occupancy="2.81" speed="16.81" length="7.00" nVehEntered="2"/>
    <interval begin="420.00" end="450.00" id="1" nVehContrib="3" flow="360.00" occupancy="3.22" speed="15.63" length="5.00" nVehEntered="3"/>
    <interval begin="420.00" end="450.00" id="2" nVehContrib="0" flow="0.00" occupancy="0.00" speed="-1.00" length="-1.00" nVehEntered="0"/>
    <interval begin="420.00" end="450.00" id="3" nVehContrib="3" flow="360.00" occupancy="3.22" speed="15.56" length="5.00" nVehEntered="3"/>
    <interval begin="420.00" end="450.00" id="0c" nVehContrib="2" flow="240.00" occupancy="27.11" speed="2.87" length="7.00" nVehEntered="3"/>
    <interval begin="420.00" end="450.00" id="1c" nVehContrib="0" flow="0.00" occupancy="0.00" speed="-1.00" length="-1.00" nVehEntered="0"/>
    <interval begin="420.00" end="450.00" id="2c" nVehContrib="0" flow="0.00" occupancy="0.00" speed="-1.00" length="-1.00" nVehEntered="0"/>
    <interval begin="420.00" end="450.00" id="3c" nVehContrib="1" flow="120.00" occupancy="1.15" speed="14.52" length="5.00" nVehEntered="1"/>
    <interval begin="450.00" end="480.00" id="0" nVehContrib="0" flow="0.00" occupancy="0.00" speed="-1.00" length="-1.00" nVehEntered="0"/>
    <interval begin="450.00" end="480.00" id="1" nVehContrib="3" flow="360.00" occupancy="4.37" speed="11.51" length="5.00" nVehEntered="3"/>
    <interval begin="450.00" end="480.00" id="2" nVehContrib="0" flow="0.00" occupancy="0.00" speed="-1.00" length="-1.00" nVehEntered="0"/>
    <interval begin="450.00" end="480.00" id="3" nVehContrib="2" flow="240.00" occupancy="2.49" speed="13.89" length="5.00" nVehEntered="2"/>
    <interval begin="450.00" end="480.00" id="0c" nVehContrib="1" flow="120.00" occupancy="2.11" speed="2.11" length="7.00" nVehEntered="0"/>
    <interval begin="450.00" end="480.00" id="1c" nVehContrib="6" flow="720.00" occupancy="26.30" speed="4.61" length="5.00" nVehEntered="6"/>
    <interval begin="450.00" end="480.00" id="2c" nVehContrib="0" flow="0.00" occupancy="0.00" speed="-1.00" length="-1.00" nVehEntered="0"/>
    <interval begin="450.00" end="480.00" id="3c" nVehContrib="5" flow="600.00" occupancy="25.98" speed="5.58" length="5.00" nVehEntered="5"/>
    <interval begin="480.00" end="510.00" id="0" nVehContrib="3" flow="360.00" occupancy="4.65" speed="15.38" length="7.00" nVehEntered="3"/>
    <interval begin="480.00" end="510.00" id="1" nVehContrib="0" flow="0.00" occupancy="0.00" speed="-1.00" length="-1.00" nVehEntered="0"/>
    <interval begin="480.00" end="510.00" id="2" nVehContrib="0" flow="0.00" occupancy="0.00" speed="-1.00" length="-1.00" nVehEntered="0"/>
    <interval begin="480.00" end="510.00" id="3" nVehContrib="2" flow="240.00" occupancy="2.03" speed="16.42" length="5.00" nVehEntered="2"/>
    <interval begin="480.00" end="510.00" id="0c" nVehContrib="0" flow="0.00" occupancy="4.91" speed="-1.00" length="-1.00" nVehEntered="1"/>
    <interval begin="480.00" end="510.00" id="1c" nVehContrib="0" flow="0.00" occupancy="0.00" speed="-1.00" length="-1.00" nVehEntered="0"/>
    <interval begin="480.00" end="510.00" id="2c" nVehContrib="0" flow="0.00" occupancy="0.00" speed="-1.00" length="-1.00" nVehEntered="0"/>
    <interval begin="480.00" end="510.00" id="3c" nVehContrib="0" flow="0.00" occupancy="0.00" speed="-1.00" length="-1.00" nVehEntered="0"/>
    <interval begin="510.00" end="540.00" id="0" nVehContrib="0" flow="0.00" occupancy="0.00" speed="-1.00" length="-1.00" nVehEntered="0"/>
    <interval begin="510.00" end="540.00" id="1" nVehContrib="6" flow="720.00" occupancy="7.12" speed="14.31" length="5.00" nVehEntered="6"/>
    <interval begin="510.00" end="540.00" id="2" nVehContrib="0" flow="0.00" occupancy="0.00" speed="-1.00" length="-1.00" nVehEntered="0"/>
    <interval begin="510.00" end="540.00" id="3" nVehContrib="5" flow="600.00" occupancy="9.42" speed="9.88" length="5.00" nVehEntered="5"/>
    <interval begin="510.00" end="540.00" id="0c" nVehContrib="3" flow="360.00" occupancy="16.05" speed="3.94" length="7.00" nVehEntered="2"/>
    <interval begin="510.00" end="540.00" id="1c" nVehContrib="5" flow="600.00" occupancy="22.82" speed="4.45" length="5.00" nVehEntered="5"/>
    <interval begin="510.00" end="540.00" id="2c" nVehContrib="0" flow="0.00" occupancy="0.00" speed="-1.00" length="-1.00" nVehEntered="0"/>
    <interval begin="510.00" end="540.00" id="3c" nVehContrib="5" flow="600.00" occupancy="23.45" speed="4.32" length="5.00" nVehEntered="5"/>
    <interval begin="540.00" end="570.00" id="0" nVehContrib="1" flow="120.00" occupancy="1.34" speed="17.40" length="7.00" nVehEntered="1"/>
    <interval begin="540.00" end="570.00" id="1" nVehContrib="2" flow="240.00" occupancy="2.03" speed="16.40" length="5.00" nVehEntered="2"/>
    <interval begin="540.00" end="570.00" id="2" nVehContrib="0" flow="0.00" occupancy="0.00" speed="-1.00" length="-1.00" nVehEntered="0"/>
    <interval begin="540.00" end="570.00" id="3" nVehContrib="3" flow="360.00" occupancy="3.85" speed="13.84" length="5.00" nVehEntered="3"/>
    <interval begin="540.00" end="570.00" id="0c" nVehContrib="0" flow="0.00" occupancy="7.94" speed="-1.00" length="-1.00" nVehEntered="1"/>
    <interval begin="540.00" end="570.00" id="1c" nVehContrib="1" flow="120.00" occupancy="1.33" speed="12.49" length="5.00" nVehEntered="1"/>
    <interval begin="540.00" end="570.00" id="2c" nVehContrib="0" flow="0.00" occupancy="0.00" speed="-1.00" length="-1.00" nVehEntered="0"/>
    <interval begin="540.00" end="570.00" id="3c" nVehContrib="4" flow="480.00" occupancy="8.52" speed="8.15" length="5.00" nVehEntered="4"/>
    <interval begin="570.00" end="600.00" id="0" nVehContrib="0" flow="0.00" occupancy="0.00" speed="-1.00" length="-1.00" nVehEntered="0"/>
    <interval begin="570.00" end="600.00" id="1" nVehContrib="3" flow="360.00" occupancy="3.46" speed="15.51" length="5.00" nVehEntered="4"/>
    <interval begin="570.00" end="600.00" id="2" nVehContrib="0" flow="0.00" occupancy="0.00" speed="-1.00" length="-1.00" nVehEntered="0"/>
    <interval begin="570.00" end="600.00" id="3" nVehContrib="1" flow="120.00" occupancy="1.02" speed="16.38" length="5.00" nVehEntered="1"/>
    <interval begin="570.00" end="600.00" id="0c" nVehContrib="1" flow="120.00" occupancy="4.39" speed="1.89" length="7.00" nVehEntered="0"/>
    <interval begin="570.00" end="600.00" id="1c" nVehContrib="5" flow="600.00" occupancy="20.17" speed="6.13" length="5.00" nVehEntered="5"/>
    <interval begin="570.00" end="600.00" id="2c" nVehContrib="0" flow="0.00" occupancy="0.00" speed="-1.00" length="-1.00" nVehEntered="0"/>
    <interval begin="570.00" end="600.00" id="3c" nVehContrib="2" flow="240.00" occupancy="11.58" speed="4.08" length="5.00" nVehEntered="2"/>
    <interval begin="600.00" end="630.00" id="0" nVehContrib="1" flow="120.00" occupancy="1.27" speed="18.38" length="7.00" nVehEntered="1"/>
    <interval begin="600.00" end="630.00" id="1" nVehContrib="3" flow="360.00" occupancy="2.82" speed="16.44" length="5.00" nVehEntered="2"/>
    <interval begin="600.00" end="630.00" id="2" nVehContrib="0" flow="0.00" occupancy="0.00" speed="-1.00" length="-1.00" nVehEntered="0"/>
    <interval begin="600.00" end="630.00" id="3" nVehContrib="1" flow="120.00" occupancy="1.01" speed="16.44" length="5.00" nVehEntered="1"/>
    <interval begin="600.00" end="630.00" id="0c" nVehContrib="1" flow="120.00" occupancy="10.94" speed="2.13" length="7.00" nVehEntered="1"/>
    <interval begin="600.00" end="630.00" id="1c" nVehContrib="1" flow="120.00" occupancy="1.01" speed="16.49" length="5.00" nVehEntered="1"/>
    <interval begin="600.00" end="630.00" id="2c" nVehContrib="0" flow="0.00" occupancy="0.00" speed="-1.00" length="-1.00" nVehEntered="0"/>
    <interval begin="600.00" end="630.00" id="3c" nVehContrib="1" flow="120.00" occupancy="1.09" speed="15.30" length="5.00" nVehEntered="1"/>
    <interval begin="630.00" end="660.00" id="0" nVehContrib="0" flow="0.00" occupancy="0.00" speed="-1.00" length="-1.00" nVehEntered="0"/>
    <interval begin="630.00" end="660.00" id="1" nVehContrib="3" flow="360.00" occupancy="3.08" speed="16.24" length="5.00" nVehEntered="3"/>
    <interval begin="630.00" end="660.00" id="2" nVehContrib="0" flow="0.00" occupancy="0.00" speed="-1.00" length="-1.00" nVehEntered="0"/>
    <interval begin="630.00" end="660.00" id="3" nVehContrib="1" flow="120.00" occupancy="1.02" speed="16.34" length="5.00" nVehEntered="1"/>
    <interval begin="630.00" end="660.00" id="0c" nVehContrib="0" flow="0.00" occupancy="0.00" speed="-1.00" length="-1.00" nVehEntered="0"/>
    <interval begin="630.00" end="660.00" id="1c" nVehContrib="5" flow="600.00" occupancy="19.37" speed="8.14" length="5.00" nVehEntered="5"/>
    <interval begin="630.00" end="660.00" id="2c" nVehContrib="0" flow="0.00" occupancy="0.00" speed="-1.00" length="-1.00" nVehEntered="0"/>
    <interval begin="630.00" end="660.00" id="3c" nVehContrib="1" flow="120.00" occupancy="1.18" speed="14.07" length="5.00" nVehEntered="1"/>
    <interval begin="660.00" end="690.00" id="0" nVehContrib="1" flow="120.00" occupancy="1.20" speed="19.51" length="7.00" nVehEntered="1"/>
    <interval begin="660.00" end="690.00" id="1" nVehContrib="3" flow="360.00" occupancy="3.16" speed="15.86" length="5.00" nVehEntered="3"/>
    <interval begin="660.00" end="690.00" id="2" nVehContrib="0" flow="0.00" occupancy="0.00" speed="-1.00" length="-1.00" nVehEntered="0"/>
    <interval begin="660.00" end="690.00" id="3" nVehContrib="2" flow="240.00" occupancy="2.02" speed="16.48" length="5.00" nVehEntered="2"/>
    <interval begin="660.00" end="690.00" id="0c" nVehContrib="1" flow="120.00" occupancy="11.91" speed="1.96" length="7.00" nVehEntered="1"/>
    <interval begin="660.00" end="690.00" id="1c" nVehContrib="1" flow="120.00" occupancy="8.66" speed="1.92" length="5.00" nVehEntered="1"/>
    <interval begin="660.00" end="690.00" id="2c" nVehContrib="0" flow="0.00" occupancy="0.00" speed="-1.00" length="-1.00" nVehEntered="0"/>
    <interval begin="660.00" end="690.00" id="3c" nVehContrib="2" flow="240.00" occupancy="3.29" speed="11.25" length="5.00" nVehEntered="2"/>
    <interval begin="690.00" end="720.00" id="0" nVehContrib="1" flow="120.00" occupancy="1.25" speed="18.74" length="7.00" nVehEntered="1"/>
    <interval begin="690.00" end="720.00" id="1" nVehContrib="5" flow="600.00" occupancy="5.98" speed="14.19" length="5.00" nVehEntered="5"/>
    <interval begin="690.00" end="720.00" id="2" nVehContrib="0" flow="0.00" occupancy="0.00" speed="-1.00" length="-1.00" nVehEntered="0"/>
    <interval begin="690.00" end="720.00" id="3" nVehContrib="2" flow="240.00" occupancy="2.04" speed="16.34" length="5.00" nVehEntered="2"/>
    <interval begin="690.00" end="720.00" id="0c" nVehContrib="1" flow="120.00" occupancy="11.40" speed="2.05" length="7.00" nVehEntered="1"/>
    <interval begin="690.00" end="720.00" id="1c" nVehContrib="5" flow="600.00" occupancy="25.14" speed="3.66" length="5.00" nVehEntered="5"/>
    <interval begin="690.00" end="720.00" id="2c" nVehContrib="0" flow="0.00" occupancy="0.00" speed="-1.00" length="-1.00" nVehEntered="0"/>
    <interval begin="690.00" end="720.00" id="3c" nVehContrib="2" flow="240.00" occupancy="11.69" speed="3.39" length="5.00" nVehEntered="2"/>
    <interval begin="720.00" end="750.00" id="0" nVehContrib="1" flow="120.00" occupancy="1.36" speed="17.21" length="7.00" nVehEntered="1"/>
    <interval begin="720.00" end="750.00" id="1" nVehContrib="2" flow="240.00" occupancy="2.01" speed="16.58" length="5.00" nVehEntered="2"/>
    <interval begin="720.00" end="750.00" id="2" nVehContrib="0" flow="0.00" occupancy="0.00" speed="-1.00" length="-1.00" nVehEntered="0"/>
    <interval begin="720.00" end="750.00" id="3" nVehContrib="2" flow="240.00" occupancy="2.02" speed="16.52" length="5.00" nVehEntered="2"/>
    <interval begin="720.00" end="750.00" id="0c" nVehContrib="0" flow="0.00" occupancy="0.00" speed="-1.00" length="-1.00" nVehEntered="0"/>
    <interval begin="720.00" end="750.00" id="1c" nVehContrib="3" flow="360.00" occupancy="7.15" speed="8.20" length="5.00" nVehEntered="3"/>
    <interval begin="720.00" end="750.00" id="2c" nVehContrib="0" flow="0.00" occupancy="0.00" speed="-1.00" length="-1.00" nVehEntered="0"/>
    <interval begin="720.00" end="750.00" id="3c" nVehContrib="1" flow="120.00" occupancy="1.02" speed="16.36" length="5.00" nVehEntered="1"/>
    <interval begin="750.00" end="780.00" id="0" nVehContrib="3" flow="360.00" occupancy="4.43" speed="16.06" length="7.00" nVehEntered="3"/>
    <interval begin="750.00" end="780.00" id="1" nVehContrib="2" flow="240.00" occupancy="2.29" speed="14.58" length="5.00" nVehEntered="2"/>
    <interval begin="750.00" end="780.00" id="2" nVehContrib="0" flow="0.00" occupancy="0.00" speed="-1.00" length="-1.00" nVehEntered="0"/>
    <interval begin="750.00" end="780.00" id="3" nVehContrib="4" flow="480.00" occupancy="4.84" speed="13.96" length="5.00" nVehEntered="4"/>