<?xml version="1.0" encoding="UTF-8"?>

<!-- generated on Thu Apr 16 19:41:32 2020 by Eclipse SUMO GUI Version v1_1_0+0000-2147d155b1
<configuration xmlns:xsi="http://www.w3.org/2001/XMLSchema-instance" xsi:noNamespaceSchemaLocation="http://sumo.dlr.de/xsd/sumoConfiguration.xsd">

    <input>
        <net-file value="baptest2.net.xml"/>
        <route-files value="baptest2.rou.xml"/>
        <additional-files value="baptest2.det.xml"/>
    </input>

    <output>
        <tripinfo-output value="tripinfo.xml"/>
    </output>

    <time>
        <begin value="0"/>
    </time>

    <report>
        <verbose value="true"/>
        <no-step-log value="true"/>
    </report>

    <traci_server>
        <remote-port value="58446"/>
    </traci_server>

    <gui_only>
        <quit-on-end value="true"/>
        <start value="true"/>
    </gui_only>

</configuration>
-->

<tripinfos xmlns:xsi="http://www.w3.org/2001/XMLSchema-instance" xsi:noNamespaceSchemaLocation="http://sumo.dlr.de/xsd/tripinfo_file.xsd">
    <tripinfo id="left_0" depart="0.00" departLane="52o_0" departPos="5.10" departSpeed="0.00" departDelay="0.00" arrival="89.00" arrivalLane="51i_0" arrivalPos="10.00" arrivalSpeed="12.24" duration="89.00" routeLength="1015.10" waitingTime="0.00" waitingCount="0" stopTime="0.00" timeLoss="14.90" rerouteNo="0" devices="tripinfo_left_0" vType="typeWE" speedFactor="1.06" vaporized=""/>
    <tripinfo id="right_2" depart="3.00" departLane="51o_0" departPos="5.10" departSpeed="0.00" departDelay="0.00" arrival="93.00" arrivalLane="52i_0" arrivalPos="10.00" arrivalSpeed="11.54" duration="90.00" routeLength="1015.10" waitingTime="0.00" waitingCount="0" stopTime="0.00" timeLoss="14.57" rerouteNo="0" devices="tripinfo_right_2" vType="typeWE" speedFactor="1.01" vaporized=""/>
    <tripinfo id="right_3" depart="8.00" departLane="51o_0" departPos="5.10" departSpeed="0.00" departDelay="4.00" arrival="96.00" arrivalLane="52i_0" arrivalPos="10.00" arrivalSpeed="12.68" duration="88.00" routeLength="1015.10" waitingTime="0.00" waitingCount="0" stopTime="0.00" timeLoss="15.37" rerouteNo="0" devices="tripinfo_right_3" vType="typeWE" speedFactor="1.08" vaporized=""/>
    <tripinfo id="left_1" depart="5.00" departLane="52o_0" departPos="5.10" departSpeed="0.00" departDelay="3.00" arrival="99.00" arrivalLane="51i_0" arrivalPos="10.00" arrivalSpeed="10.60" duration="94.00" routeLength="1015.10" waitingTime="0.00" waitingCount="0" stopTime="0.00" timeLoss="14.83" rerouteNo="0" devices="tripinfo_left_1" vType="typeWE" speedFactor="0.94" vaporized=""/>
    <tripinfo id="left_4" depart="10.00" departLane="52o_0" departPos="5.10" departSpeed="0.00" departDelay="4.00" arrival="101.00" arrivalLane="51i_0" arrivalPos="10.00" arrivalSpeed="11.46" duration="91.00" routeLength="1015.10" waitingTime="0.00" waitingCount="0" stopTime="0.00" timeLoss="15.61" rerouteNo="0" devices="tripinfo_left_4" vType="typeWE" speedFactor="1.03" vaporized=""/>
    <tripinfo id="left_6" depart="22.00" departLane="52o_0" departPos="5.10" departSpeed="0.00" departDelay="0.00" arrival="112.00" arrivalLane="51i_0" arrivalPos="10.00" arrivalSpeed="12.32" duration="90.00" routeLength="1015.10" waitingTime="0.00" waitingCount="0" stopTime="0.00" timeLoss="15.68" rerouteNo="0" devices="tripinfo_left_6" vType="typeWE" speedFactor="1.05" vaporized=""/>
    <tripinfo id="right_5" depart="13.00" departLane="51o_0" departPos="5.10" departSpeed="0.00" departDelay="4.00" arrival="114.00" arrivalLane="52i_0" arrivalPos="10.00" arrivalSpeed="9.53" duration="101.00" routeLength="1015.10" waitingTime="0.00" waitingCount="0" stopTime="0.00" timeLoss="14.46" rerouteNo="0" devices="tripinfo_right_5" vType="typeWE" speedFactor="0.83" vaporized=""/>
    <tripinfo id="left_7" depart="31.00" departLane="52o_0" departPos="5.10" departSpeed="0.00" departDelay="0.00" arrival="128.00" arrivalLane="51i_0" arrivalPos="10.00" arrivalSpeed="10.53" duration="97.00" routeLength="1015.10" waitingTime="0.00" waitingCount="0" stopTime="0.00" timeLoss="14.63" rerouteNo="0" devices="tripinfo_left_7" vType="typeWE" speedFactor="0.89" vaporized=""/>
    <tripinfo id="right_10" depart="42.00" departLane="51o_0" departPos="5.10" departSpeed="0.00" departDelay="0.00" arrival="129.00" arrivalLane="52i_0" arrivalPos="10.00" arrivalSpeed="12.43" duration="87.00" routeLength="1015.10" waitingTime="0.00" waitingCount="0" stopTime="0.00" timeLoss="14.80" rerouteNo="0" devices="tripinfo_right_10" vType="typeWE" speedFactor="1.09" vaporized=""/>
    <tripinfo id="left_8" depart="36.00" departLane="52o_0" departPos="5.10" departSpeed="0.00" departDelay="3.00" arrival="130.00" arrivalLane="51i_0" arrivalPos="10.00" arrivalSpeed="10.37" duration="94.00" routeLength="1015.10" waitingTime="0.00" waitingCount="0" stopTime="0.00" timeLoss="15.01" rerouteNo="0" devices="tripinfo_left_8" vType="typeWE" speedFactor="0.94" vaporized=""/>
    <tripinfo id="left_9" depart="41.00" departLane="52o_0" departPos="5.10" departSpeed="0.00" departDelay="0.00" arrival="140.00" arrivalLane="51i_0" arrivalPos="10.00" arrivalSpeed="9.84" duration="99.00" routeLength="1015.10" waitingTime="0.00" waitingCount="0" stopTime="0.00" timeLoss="15.53" rerouteNo="0" devices="tripinfo_left_9" vType="typeWE" speedFactor="0.86" vaporized=""/>
    <tripinfo id="left_11" depart="46.00" departLane="52o_0" departPos="5.10" departSpeed="0.00" departDelay="1.00" arrival="142.00" arrivalLane="51i_0" arrivalPos="10.00" arrivalSpeed="10.65" duration="96.00" routeLength="1015.10" waitingTime="0.00" waitingCount="0" stopTime="0.00" timeLoss="20.88" rerouteNo="0" devices="tripinfo_left_11" vType="typeWE" speedFactor="1.03" vaporized=""/>
    <tripinfo id="right_13" depart="55.00" departLane="51o_0" departPos="5.10" departSpeed="0.00" departDelay="0.00" arrival="142.00" arrivalLane="52i_0" arrivalPos="10.00" arrivalSpeed="12.67" duration="87.00" routeLength="1015.10" waitingTime="0.00" waitingCount="0" stopTime="0.00" timeLoss="15.56" rerouteNo="0" devices="tripinfo_right_13" vType="typeWE" speedFactor="1.12" vaporized=""/>
    <tripinfo id="left_12" depart="53.00" departLane="52o_0" departPos="5.10" departSpeed="0.00" departDelay="0.00" arrival="144.00" arrivalLane="51i_0" arrivalPos="10.00" arrivalSpeed="11.36" duration="91.00" routeLength="1015.10" waitingTime="0.00" waitingCount="0" stopTime="0.00" timeLoss="16.65" rerouteNo="0" devices="tripinfo_left_12" vType="typeWE" speedFactor="1.05" vaporized=""/>
    <tripinfo id="right_14" depart="61.00" departLane="51o_0" departPos="5.10" departSpeed="0.00" departDelay="0.00" arrival="153.00" arrivalLane="52i_0" arrivalPos="10.00" arrivalSpeed="11.32" duration="92.00" routeLength="1015.10" waitingTime="0.00" waitingCount="0" stopTime="0.00" timeLoss="15.56" rerouteNo="0" devices="tripinfo_right_14" vType="typeWE" speedFactor="0.99" vaporized=""/>
    <tripinfo id="right_15" depart="69.00" departLane="51o_0" departPos="5.10" departSpeed="0.00" departDelay="0.00" arrival="164.00" arrivalLane="52i_0" arrivalPos="10.00" arrivalSpeed="10.64" duration="95.00" routeLength="1015.10" waitingTime="0.00" waitingCount="0" stopTime="0.00" timeLoss="15.02" rerouteNo="0" devices="tripinfo_right_15" vType="typeWE" speedFactor="0.93" vaporized=""/>
    <tripinfo id="left_17" depart="85.00" departLane="52o_0" departPos="5.10" departSpeed="0.00" departDelay="0.00" arrival="179.00" arrivalLane="51i_0" arrivalPos="10.00" arrivalSpeed="10.98" duration="94.00" routeLength="1015.10" waitingTime="0.00" waitingCount="0" stopTime="0.00" timeLoss="15.17" rerouteNo="0" devices="tripinfo_left_17" vType="typeWE" speedFactor="0.94" vaporized=""/>
    <tripinfo id="right_16" depart="84.00" departLane="51o_0" departPos="5.10" departSpeed="0.00" departDelay="0.00" arrival="183.00" arrivalLane="52i_0" arrivalPos="10.00" arrivalSpeed="10.07" duration="99.00" routeLength="1015.10" waitingTime="0.00" waitingCount="0" stopTime="0.00" timeLoss="16.78" rerouteNo="0" devices="tripinfo_right_16" vType="typeWE" speedFactor="0.88" vaporized=""/>
    <tripinfo id="down_18" depart="89.00" departLane="54o_0" departPos="7.10" departSpeed="0.00" departDelay="0.00" arrival="196.00" arrivalLane="53i_0" arrivalPos="10.00" arrivalSpeed="10.55" duration="107.00" routeLength="1013.10" waitingTime="3.00" waitingCount="1" stopTime="0.00" timeLoss="30.82" rerouteNo="0" devices="tripinfo_down_18" vType="typeNS" speedFactor="0.94" vaporized=""/>
    <tripinfo id="down_19" depart="96.00" departLane="54o_0" departPos="7.10" departSpeed="0.00" departDelay="0.00" arrival="198.00" arrivalLane="53i_0" arrivalPos="10.00" arrivalSpeed="11.23" duration="102.00" routeLength="1013.10" waitingTime="0.00" waitingCount="0" stopTime="0.00" timeLoss="40.34" rerouteNo="0" devices="tripinfo_down_19" vType="typeNS" speedFactor="1.16" vaporized=""/>
    <tripinfo id="left_21" depart="99.00" departLane="52o_0" departPos="5.10" departSpeed="0.00" departDelay="0.00" arrival="206.00" arrivalLane="51i_0" arrivalPos="10.00" arrivalSpeed="11.64" duration="107.00" routeLength="1015.10" waitingTime="6.00" waitingCount="1" stopTime="0.00" timeLoss="30.99" rerouteNo="0" devices="tripinfo_left_21" vType="typeWE" speedFactor="1.01" vaporized=""/>
    <tripinfo id="right_20" depart="101.00" departLane="51o_0" departPos="5.10" departSpeed="0.00" departDelay="2.00" arrival="206.00" arrivalLane="52i_0" arrivalPos="10.00" arrivalSpeed="11.88" duration="105.00" routeLength="1015.10" waitingTime="5.00" waitingCount="1" stopTime="0.00" timeLoss="29.50" rerouteNo="0" devices="tripinfo_right_20" vType="typeWE" speedFactor="1.02" vaporized=""/>
    <tripinfo id="right_22" depart="108.00" departLane="51o_0" departPos="5.10" departSpeed="0.00" departDelay="0.00" arrival="210.00" arrivalLane="52i_0" arrivalPos="10.00" arrivalSpeed="11.44" duration="102.00" routeLength="1015.10" waitingTime="0.00" waitingCount="0" stopTime="0.00" timeLoss="24.50" rerouteNo="0" devices="tripinfo_right_22" vType="typeWE" speedFactor="0.98" vaporized=""/>
    <tripinfo id="right_23" depart="114.00" departLane="51o_0" departPos="5.10" departSpeed="0.00" departDelay="0.00" arrival="216.00" arrivalLane="52i_0" arrivalPos="10.00" arrivalSpeed="10.51" duration="102.00" routeLength="1015.10" waitingTime="0.00" waitingCount="0" stopTime="0.00" timeLoss="19.98" rerouteNo="0" devices="tripinfo_right_23" vType="typeWE" speedFactor="0.89" vaporized=""/>
    <tripinfo id="down_24" depart="122.00" departLane="54o_0" departPos="7.10" departSpeed="0.00" departDelay="0.00" arrival="236.00" arrivalLane="53i_0" arrivalPos="10.00" arrivalSpeed="9.35" duration="114.00" routeLength="1013.10" waitingTime="3.00" waitingCount="1" stopTime="0.00" timeLoss="27.55" rerouteNo="0" devices="tripinfo_down_24" vType="typeNS" speedFactor="0.83" vaporized=""/>
    <tripinfo id="left_26" depart="131.00" departLane="52o_0" departPos="5.10" departSpeed="0.00" departDelay="0.00" arrival="240.00" arrivalLane="51i_0" arrivalPos="10.00" arrivalSpeed="10.66" duration="109.00" routeLength="1015.10" waitingTime="0.00" waitingCount="0" stopTime="0.00" timeLoss="28.80" rerouteNo="0" devices="tripinfo_left_26" vType="typeWE" speedFactor="0.92" vaporized=""/>
    <tripinfo id="right_25" depart="125.00" departLane="51o_0" departPos="5.10" departSpeed="0.00" departDelay="0.00" arrival="241.00" arrivalLane="52i_0" arrivalPos="10.00" arrivalSpeed="9.90" duration="116.00" routeLength="1015.10" waitingTime="9.00" waitingCount="1" stopTime="0.00" timeLoss="33.62" rerouteNo="0" devices="tripinfo_right_25" vType="typeWE" speedFactor="0.87" vaporized=""/>
    <tripinfo id="left_27" depart="136.00" departLane="52o_0" departPos="5.10" departSpeed="0.00" departDelay="1.00" arrival="242.00" arrivalLane="51i_0" arrivalPos="10.00" arrivalSpeed="10.94" duration="106.00" routeLength="1015.10" waitingTime="0.00" waitingCount="0" stopTime="0.00" timeLoss="27.13" rerouteNo="0" devices="tripinfo_left_27" vType="typeWE" speedFactor="0.95" vaporized=""/>
    <tripinfo id="left_28" depart="142.00" departLane="52o_0" departPos="5.10" departSpeed="0.00" departDelay="4.00" arrival="243.00" arrivalLane="51i_0" arrivalPos="10.00" arrivalSpeed="11.09" duration="101.00" routeLength="1015.10" waitingTime="0.00" waitingCount="0" stopTime="0.00" timeLoss="30.35" rerouteNo="0" devices="tripinfo_left_28" vType="typeWE" speedFactor="1.13" vaporized=""/>
    <tripinfo id="right_30" depart="145.00" departLane="51o_0" departPos="5.10" departSpeed="0.00" departDelay="0.00" arrival="243.00" arrivalLane="52i_0" arrivalPos="10.00" arrivalSpeed="10.58" duration="98.00" routeLength="1015.10" waitingTime="0.00" waitingCount="0" stopTime="0.00" timeLoss="28.81" rerouteNo="0" devices="tripinfo_right_30" vType="typeWE" speedFactor="1.18" vaporized=""/>
    <tripinfo id="left_29" depart="147.00" departLane="52o_0" departPos="5.10" departSpeed="0.00" departDelay="5.00" arrival="245.00" arrivalLane="51i_0" arrivalPos="10.00" arrivalSpeed="10.85" duration="98.00" routeLength="1015.10" waitingTime="0.00" waitingCount="0" stopTime="0.00" timeLoss="18.86" rerouteNo="0" devices="tripinfo_left_29" vType="typeWE" speedFactor="0.93" vaporized=""/>
    <tripinfo id="left_31" depart="153.00" departLane="52o_0" departPos="5.10" departSpeed="0.00" departDelay="0.00" arrival="247.00" arrivalLane="51i_0" arrivalPos="10.00" arrivalSpeed="11.80" duration="94.00" routeLength="1015.10" waitingTime="0.00" waitingCount="0" stopTime="0.00" timeLoss="23.79" rerouteNo="0" devices="tripinfo_left_31" vType="typeWE" speedFactor="1.15" vaporized=""/>
    <tripinfo id="left_32" depart="158.00" departLane="52o_0" departPos="5.10" departSpeed="0.00" departDelay="2.00" arrival="249.00" arrivalLane="51i_0" arrivalPos="10.00" arrivalSpeed="11.41" duration="91.00" routeLength="1015.10" waitingTime="0.00" waitingCount="0" stopTime="0.00" timeLoss="15.48" rerouteNo="0" devices="tripinfo_left_32" vType="typeWE" speedFactor="1.01" vaporized=""/>
    <tripinfo id="left_33" depart="164.00" departLane="52o_0" departPos="5.10" departSpeed="0.00" departDelay="4.00" arrival="251.00" arrivalLane="51i_0" arrivalPos="10.00" arrivalSpeed="12.44" duration="87.00" routeLength="1015.10" waitingTime="0.00" waitingCount="0" stopTime="0.00" timeLoss="17.49" rerouteNo="0" devices="tripinfo_left_33" vType="typeWE" speedFactor="1.17" vaporized=""/>
    <tripinfo id="right_35" depart="167.00" departLane="51o_0" departPos="5.10" departSpeed="0.00" departDelay="0.00" arrival="257.00" arrivalLane="52i_0" arrivalPos="10.00" arrivalSpeed="11.73" duration="90.00" routeLength="1015.10" waitingTime="0.00" waitingCount="0" stopTime="0.00" timeLoss="14.98" rerouteNo="0" devices="tripinfo_right_35" vType="typeWE" speedFactor="1.02" vaporized=""/>
    <tripinfo id="left_34" depart="169.00" departLane="52o_0" departPos="5.10" departSpeed="0.00" departDelay="5.00" arrival="263.00" arrivalLane="51i_0" arrivalPos="10.00" arrivalSpeed="11.29" duration="94.00" routeLength="1015.10" waitingTime="0.00" waitingCount="0" stopTime="0.00" timeLoss="17.11" rerouteNo="0" devices="tripinfo_left_34" vType="typeWE" speedFactor="0.99" vaporized=""/>
    <tripinfo id="right_36" depart="172.00" departLane="51o_0" departPos="5.10" departSpeed="0.00" departDelay="4.00" arrival="263.00" arrivalLane="52i_0" arrivalPos="10.00" arrivalSpeed="11.44" duration="91.00" routeLength="1015.10" waitingTime="0.00" waitingCount="0" stopTime="0.00" timeLoss="13.77" rerouteNo="0" devices="tripinfo_right_36" vType="typeWE" speedFactor="0.97" vaporized=""/>
    <tripinfo id="left_37" depart="175.00" departLane="52o_0" departPos="5.10" departSpeed="0.00" departDelay="6.00" arrival="279.00" arrivalLane="51i_0" arrivalPos="10.00" arrivalSpeed="13.52" duration="104.00" routeLength="1015.10" waitingTime="7.00" waitingCount="1" stopTime="0.00" timeLoss="34.36" rerouteNo="0" devices="tripinfo_left_37" vType="typeWE" speedFactor="1.18" vaporized=""/>
    <tripinfo id="down_39" depart="172.00" departLane="54o_0" departPos="7.10" departSpeed="0.00" departDelay="0.00" arrival="280.00" arrivalLane="53i_0" arrivalPos="10.00" arrivalSpeed="10.41" duration="108.00" routeLength="1013.10" waitingTime="3.00" waitingCount="1" stopTime="0.00" timeLoss="28.92" rerouteNo="0" devices="tripinfo_down_39" vType="typeNS" speedFactor="0.90" vaporized=""/>
    <tripinfo id="left_38" depart="180.00" departLane="52o_0" departPos="5.10" departSpeed="0.00" departDelay="8.00" arrival="283.00" arrivalLane="51i_0" arrivalPos="10.00" arrivalSpeed="12.53" duration="103.00" routeLength="1015.10" waitingTime="5.00" waitingCount="2" stopTime="0.00" timeLoss="31.24" rerouteNo="0" devices="tripinfo_left_38" vType="typeWE" speedFactor="1.10" vaporized=""/>
    <tripinfo id="right_40" depart="177.00" departLane="51o_0" departPos="5.10" departSpeed="0.00" departDelay="1.00" arrival="283.00" arrivalLane="52i_0" arrivalPos="10.00" arrivalSpeed="11.74" duration="106.00" routeLength="1015.10" waitingTime="6.00" waitingCount="1" stopTime="0.00" timeLoss="31.16" rerouteNo="0" devices="tripinfo_right_40" vType="typeWE" speedFactor="1.03" vaporized=""/>
    <tripinfo id="left_43" depart="194.00" departLane="52o_0" departPos="5.10" departSpeed="0.00" departDelay="0.00" arrival="287.00" arrivalLane="51i_0" arrivalPos="10.00" arrivalSpeed="11.78" duration="93.00" routeLength="1015.10" waitingTime="0.00" waitingCount="0" stopTime="0.00" timeLoss="18.54" rerouteNo="0" devices="tripinfo_left_43" vType="typeWE" speedFactor="1.04" vaporized=""/>
    <tripinfo id="right_41" depart="182.00" departLane="51o_0" departPos="5.10" departSpeed="0.00" departDelay="1.00" arrival="288.00" arrivalLane="52i_0" arrivalPos="10.00" arrivalSpeed="10.84" duration="106.00" routeLength="1015.10" waitingTime="1.00" waitingCount="1" stopTime="0.00" timeLoss="27.99" rerouteNo="0" devices="tripinfo_right_41" vType="typeWE" speedFactor="0.96" vaporized=""/>
    <tripinfo id="left_44" depart="200.00" departLane="52o_0" departPos="5.10" departSpeed="0.00" departDelay="4.00" arrival="289.00" arrivalLane="51i_0" arrivalPos="10.00" arrivalSpeed="11.95" duration="89.00" routeLength="1015.10" waitingTime="0.00" waitingCount="0" stopTime="0.00" timeLoss="14.45" rerouteNo="0" devices="tripinfo_left_44" vType="typeWE" speedFactor="1.04" vaporized=""/>
    <tripinfo id="right_42" depart="187.00" departLane="51o_0" departPos="5.10" departSpeed="0.00" departDelay="4.00" arrival="290.00" arrivalLane="52i_0" arrivalPos="10.00" arrivalSpeed="11.34" duration="103.00" routeLength="1015.10" waitingTime="0.00" waitingCount="0" stopTime="0.00" timeLoss="30.55" rerouteNo="0" devices="tripinfo_right_42" vType="typeWE" speedFactor="1.09" vaporized=""/>
    <tripinfo id="right_46" depart="200.00" departLane="51o_0" departPos="5.10" departSpeed="0.00" departDelay="0.00" arrival="292.00" arrivalLane="52i_0" arrivalPos="10.00" arrivalSpeed="11.61" duration="92.00" routeLength="1015.10" waitingTime="0.00" waitingCount="0" stopTime="0.00" timeLoss="15.28" rerouteNo="0" devices="tripinfo_right_46" vType="typeWE" speedFactor="1.00" vaporized=""/>
    <tripinfo id="left_45" depart="206.00" departLane="52o_0" departPos="5.10" departSpeed="0.00" departDelay="7.00" arrival="293.00" arrivalLane="51i_0" arrivalPos="10.00" arrivalSpeed="12.46" duration="87.00" routeLength="1015.10" waitingTime="0.00" waitingCount="0" stopTime="0.00" timeLoss="14.39" rerouteNo="0" devices="tripinfo_left_45" vType="typeWE" speedFactor="1.09" vaporized=""/>
    <tripinfo id="left_47" depart="212.00" departLane="52o_0" departPos="5.10" departSpeed="0.00" departDelay="0.00" arrival="309.00" arrivalLane="51i_0" arrivalPos="10.00" arrivalSpeed="10.43" duration="97.00" routeLength="1015.10" waitingTime="0.00" waitingCount="0" stopTime="0.00" timeLoss="15.94" rerouteNo="0" devices="tripinfo_left_47" vType="typeWE" speedFactor="0.90" vaporized=""/>
    <tripinfo id="right_48" depart="217.00" departLane="51o_0" departPos="5.10" departSpeed="0.00" departDelay="0.00" arrival="315.00" arrivalLane="52i_0" arrivalPos="10.00" arrivalSpeed="9.92" duration="98.00" routeLength="1015.10" waitingTime="0.00" waitingCount="0" stopTime="0.00" timeLoss="15.32" rerouteNo="0" devices="tripinfo_right_48" vType="typeWE" speedFactor="0.88" vaporized=""/>
    <tripinfo id="left_49" depart="219.00" departLane="52o_0" departPos="5.10" departSpeed="0.00" departDelay="0.00" arrival="319.00" arrivalLane="51i_0" arrivalPos="10.00" arrivalSpeed="10.08" duration="100.00" routeLength="1015.10" waitingTime="0.00" waitingCount="0" stopTime="0.00" timeLoss="15.23" rerouteNo="0" devices="tripinfo_left_49" vType="typeWE" speedFactor="0.85" vaporized=""/>
    <tripinfo id="left_51" depart="234.00" departLane="52o_0" departPos="5.10" departSpeed="0.00" departDelay="0.00" arrival="321.00" arrivalLane="51i_0" arrivalPos="10.00" arrivalSpeed="10.94" duration="87.00" routeLength="1015.10" waitingTime="0.00" waitingCount="0" stopTime="0.00" timeLoss="17.02" rerouteNo="0" devices="tripinfo_left_51" vType="typeWE" speedFactor="1.17" vaporized=""/>
    <tripinfo id="right_50" depart="228.00" departLane="51o_0" departPos="5.10" departSpeed="0.00" departDelay="0.00" arrival="329.00" arrivalLane="52i_0" arrivalPos="10.00" arrivalSpeed="9.95" duration="101.00" routeLength="1015.10" waitingTime="0.00" waitingCount="0" stopTime="0.00" timeLoss="16.89" rerouteNo="0" devices="tripinfo_right_50" vType="typeWE" speedFactor="0.85" vaporized=""/>
    <tripinfo id="left_52" depart="239.00" departLane="52o_0" departPos="5.10" departSpeed="0.00" departDelay="1.00" arrival="330.00" arrivalLane="51i_0" arrivalPos="10.00" arrivalSpeed="11.85" duration="91.00" routeLength="1015.10" waitingTime="0.00" waitingCount="0" stopTime="0.00" timeLoss="15.74" rerouteNo="0" devices="tripinfo_left_52" vType="typeWE" speedFactor="1.02" vaporized=""/>
    <tripinfo id="right_53" depart="243.00" departLane="51o_0" departPos="5.10" departSpeed="0.00" departDelay="3.00" arrival="331.00" arrivalLane="52i_0" arrivalPos="10.00" arrivalSpeed="11.29" duration="88.00" routeLength="1015.10" waitingTime="0.00" waitingCount="0" stopTime="0.00" timeLoss="15.42" rerouteNo="0" devices="tripinfo_right_53" vType="typeWE" speedFactor="1.10" vaporized=""/>
    <tripinfo id="left_54" depart="272.00" departLane="52o_0" departPos="5.10" departSpeed="0.00" departDelay="0.00" arrival="363.00" arrivalLane="51i_0" arrivalPos="10.00" arrivalSpeed="11.29" duration="91.00" routeLength="1015.10" waitingTime="0.00" waitingCount="0" stopTime="0.00" timeLoss="14.90" rerouteNo="0" devices="tripinfo_left_54" vType="typeWE" speedFactor="1.00" vaporized=""/>
    <tripinfo id="left_55" depart="277.00" departLane="52o_0" departPos="5.10" departSpeed="0.00" departDelay="2.00" arrival="368.00" arrivalLane="51i_0" arrivalPos="10.00" arrivalSpeed="11.19" duration="91.00" routeLength="1015.10" waitingTime="0.00" waitingCount="0" stopTime="0.00" timeLoss="14.93" rerouteNo="0" devices="tripinfo_left_55" vType="typeWE" speedFactor="1.00" vaporized=""/>
    <tripinfo id="right_56" depart="284.00" departLane="51o_0" departPos="5.10" departSpeed="0.00" departDelay="0.00" arrival="381.00" arrivalLane="52i_0" arrivalPos="10.00" arrivalSpeed="10.03" duration="97.00" routeLength="1015.10" waitingTime="0.00" waitingCount="0" stopTime="0.00" timeLoss="15.74" rerouteNo="0" devices="tripinfo_right_56" vType="typeWE" speedFactor="0.90" vaporized=""/>
    <tripinfo id="right_57" depart="289.00" departLane="51o_0" departPos="5.10" departSpeed="0.00" departDelay="3.00" arrival="383.00" arrivalLane="52i_0" arrivalPos="10.00" arrivalSpeed="10.78" duration="94.00" routeLength="1015.10" waitingTime="0.00" waitingCount="0" stopTime="0.00" timeLoss="23.32" rerouteNo="0" devices="tripinfo_right_57" vType="typeWE" speedFactor="1.14" vaporized=""/>
    <tripinfo id="right_58" depart="295.00" departLane="51o_0" departPos="5.10" departSpeed="0.00" departDelay="7.00" arrival="386.00" arrivalLane="52i_0" arrivalPos="10.00" arrivalSpeed="11.44" duration="91.00" routeLength="1015.10" waitingTime="0.00" waitingCount="0" stopTime="0.00" timeLoss="15.50" rerouteNo="0" devices="tripinfo_right_58" vType="typeWE" speedFactor="1.02" vaporized=""/>
    <tripinfo id="right_59" depart="300.00" departLane="51o_0" departPos="5.10" departSpeed="0.00" departDelay="9.00" arrival="392.00" arrivalLane="52i_0" arrivalPos="10.00" arrivalSpeed="11.08" duration="92.00" routeLength="1015.10" waitingTime="0.00" waitingCount="0" stopTime="0.00" timeLoss="14.44" rerouteNo="0" devices="tripinfo_right_59" vType="typeWE" speedFactor="0.97" vaporized=""/>
    <tripinfo id="right_60" depart="305.00" departLane="51o_0" departPos="5.10" departSpeed="0.00" departDelay="11.00" arrival="394.00" arrivalLane="52i_0" arrivalPos="10.00" arrivalSpeed="11.96" duration="89.00" routeLength="1015.10" waitingTime="0.00" waitingCount="0" stopTime="0.00" timeLoss="16.10" rerouteNo="0" devices="tripinfo_right_60" vType="typeWE" speedFactor="1.08" vaporized=""/>
    <tripinfo id="down_61" depart="318.00" departLane="54o_0" departPos="7.10" departSpeed="0.00" departDelay="0.00" arrival="418.00" arrivalLane="53i_0" arrivalPos="10.00" arrivalSpeed="13.01" duration="100.00" routeLength="1013.10" waitingTime="3.00" waitingCount="1" stopTime="0.00" timeLoss="36.37" rerouteNo="0" devices="tripinfo_down_61" vType="typeNS" speedFactor="1.12" vaporized=""/>
    <tripinfo id="down_63" depart="331.00" departLane="54o_0" departPos="7.10" departSpeed="0.00" departDelay="0.00" arrival="437.00" arrivalLane="53i_0" arrivalPos="10.00" arrivalSpeed="11.43" duration="106.00" routeLength="1013.10" waitingTime="3.00" waitingCount="1" stopTime="0.00" timeLoss="33.26" rerouteNo="0" devices="tripinfo_down_63" vType="typeNS" speedFactor="0.99" vaporized=""/>
    <tripinfo id="down_64" depart="337.00" departLane="54o_0" departPos="7.10" departSpeed="0.00" departDelay="0.00" arrival="441.00" arrivalLane="53i_0" arrivalPos="10.00" arrivalSpeed="11.11" duration="104.00" routeLength="1013.10" waitingTime="0.00" waitingCount="0" stopTime="0.00" timeLoss="27.72" rerouteNo="0" devices="tripinfo_down_64" vType="typeNS" speedFactor="0.94" vaporized=""/>
    <tripinfo id="down_68" depart="344.00" departLane="54o_0" departPos="7.10" departSpeed="0.00" departDelay="0.00" arrival="443.00" arrivalLane="53i_0" arrivalPos="10.00" arrivalSpeed="11.44" duration="99.00" routeLength="1013.10" waitingTime="0.00" waitingCount="0" stopTime="0.00" timeLoss="30.15" rerouteNo="0" devices="tripinfo_down_68" vType="typeNS" speedFactor="1.04" vaporized=""/>
    <tripinfo id="right_62" depart="322.00" departLane="51o_0" departPos="5.10" departSpeed="0.00" departDelay="0.00" arrival="452.00" arrivalLane="52i_0" arrivalPos="10.00" arrivalSpeed="11.57" duration="130.00" routeLength="1015.10" waitingTime="27.00" waitingCount="2" stopTime="0.00" timeLoss="54.86" rerouteNo="0" devices="tripinfo_right_62" vType="typeWE" speedFactor="1.02" vaporized=""/>
    <tripinfo id="left_65" depart="339.00" departLane="52o_0" departPos="5.10" departSpeed="0.00" departDelay="0.00" arrival="458.00" arrivalLane="51i_0" arrivalPos="10.00" arrivalSpeed="10.53" duration="119.00" routeLength="1015.10" waitingTime="11.00" waitingCount="1" stopTime="0.00" timeLoss="36.87" rerouteNo="0" devices="tripinfo_left_65" vType="typeWE" speedFactor="0.88" vaporized=""/>
    <tripinfo id="right_66" depart="342.00" departLane="51o_0" departPos="5.10" departSpeed="0.00" departDelay="0.00" arrival="459.00" arrivalLane="52i_0" arrivalPos="10.00" arrivalSpeed="10.66" duration="117.00" routeLength="1015.10" waitingTime="10.00" waitingCount="1" stopTime="0.00" timeLoss="36.19" rerouteNo="0" devices="tripinfo_right_66" vType="typeWE" speedFactor="0.91" vaporized=""/>
    <tripinfo id="left_67" depart="344.00" departLane="52o_0" departPos="5.10" departSpeed="0.00" departDelay="0.00" arrival="460.00" arrivalLane="51i_0" arrivalPos="10.00" arrivalSpeed="10.50" duration="116.00" routeLength="1015.10" waitingTime="6.00" waitingCount="1" stopTime="0.00" timeLoss="35.38" rerouteNo="0" devices="tripinfo_left_67" vType="typeWE" speedFactor="0.91" vaporized=""/>
    <tripinfo id="right_70" depart="354.00" departLane="51o_0" departPos="5.10" departSpeed="0.00" departDelay="0.00" arrival="461.00" arrivalLane="52i_0" arrivalPos="10.00" arrivalSpeed="10.82" duration="107.00" routeLength="1015.10" waitingTime="0.00" waitingCount="0" stopTime="0.00" timeLoss="31.73" rerouteNo="0" devices="tripinfo_right_70" vType="typeWE" speedFactor="1.02" vaporized=""/>
    <tripinfo id="left_69" depart="350.00" departLane="52o_0" departPos="5.10" departSpeed="0.00" departDelay="4.00" arrival="462.00" arrivalLane="51i_0" arrivalPos="10.00" arrivalSpeed="11.30" duration="112.00" routeLength="1015.10" waitingTime="3.00" waitingCount="1" stopTime="0.00" timeLoss="36.43" rerouteNo="0" devices="tripinfo_left_69" vType="typeWE" speedFactor="1.02" vaporized=""/>
    <tripinfo id="right_71" depart="375.00" departLane="51o_0" departPos="5.10" departSpeed="0.00" departDelay="0.00" arrival="468.00" arrivalLane="52i_0" arrivalPos="10.00" arrivalSpeed="11.22" duration="93.00" routeLength="1015.10" waitingTime="0.00" waitingCount="0" stopTime="0.00" timeLoss="15.84" rerouteNo="0" devices="tripinfo_right_71" vType="typeWE" speedFactor="0.97" vaporized=""/>
    <tripinfo id="down_72" depart="377.00" departLane="54o_0" departPos="7.10" departSpeed="0.00" departDelay="0.00" arrival="485.00" arrivalLane="53i_0" arrivalPos="10.00" arrivalSpeed="11.15" duration="108.00" routeLength="1013.10" waitingTime="4.00" waitingCount="1" stopTime="0.00" timeLoss="31.87" rerouteNo="0" devices="tripinfo_down_72" vType="typeNS" speedFactor="0.94" vaporized=""/>